LAMMPS Simazine data file, created summer 2020 by Philip Maruri and Raneem Mohamed, checked and updated summer 2021 by Jennie		

25 atoms
25 bonds
42 angles
50 dihedrals

10 atom types
7 bond types
11 angle types
11 dihedral types	

-10.0  10.0 xlo xhi		
-10.0  10.0 ylo yhi		
-10.0  10.0 zlo zhi		

Masses		

1	35.453
2	14.007
3	14.007
4	12.011
5	12.011
6	12.011
7	12.011
8	1.008
9	1.008
10  	1.008

Atoms						

1	1	1	-0.309	0.0357	-3.9062	0.0019	#206(21) Adjusted by -0.129 for coordinating triazine C
2	1	2	-0.929	-2.3428	0.4324	0.0068	#311(55) Adjusted by -0.129 for coordinating triazine C
3	1	2	-0.929	2.3477	0.4677	-0.0072	#311(55) Adjusted by -0.129 for coordinating triazine C
4	1	3	-0.951	0.0021	0.4826	-0.0001	#582(56) 1,3,5-Triazine N
5	1	3	-0.951	1.2175	-1.5863	-0.0042	#582(56) 1,3,5-Triazine N
6	1	3	-0.951	-1.1819	-1.6044	0.0029	#582(56) 1,3,5-Triazine N
7	1	4	0.08	-2.4493	1.8709	0.0075	#737(13) 
8	1	4	0.08	2.4090	1.8959	-0.0069	#737(13) 
9	1	5	1.28	-1.1364	-0.2509	0.0031	#583(59) Adjusted by 0.315 for coordinating NHR instead of H
10	1	5	1.28	1.1298	-0.2464	-0.0037	#583(59) Adjusted by 0.315 for coordinating NHR instead of H
11	1	6	-0.1800	-3.9078	2.2866	-0.0104	#80(13)
12	1	6	-0.1800	3.8538	2.3565	0.0113	#80(13)
13	1	7	1.26	0.0224	-2.1984	-0.0009	#583(59) Adjusted by 0.295 for coordinating Cl instead of H
14	1	8	0.0600	-1.9678	2.2847	0.9009	#741(46)
15	1	8	0.0600	-1.9470	2.2878	-0.8729	#741(46)
16	1	8	0.0600	1.9170	2.2998	-0.8993	#741(46)
17	1	8	0.0600	1.8965	2.3010	0.8734	#741(46)
18	1	9	0.4000	-3.1853	-0.1315	0.0109	#312(45) 
19	1	9	0.4000	3.1965	-0.0863	-0.0119	#312(45) 
20	1	10	0.0600	-4.4152	1.9030	-0.9021	#85(46)
21	1	10	0.0600	-4.4375	1.9014	0.8674	#85(46)
22	1	10	0.0600	-3.9943	3.3775	-0.0104	#85(46)
23	1	10	0.0600	4.3733	1.9887	0.9027	#85(46)
24	1	10	0.0600	4.3955	1.9890	-0.8669	#85(46)
25	1	10	0.0600	3.9065	3.4496	0.0120	#85(46)

Bonds						

1	1	1	13	#21-59
2	2	2	7	#13-55
3	3	2	9	#55-59
4	4	2	18	#45-55
5	2	3	8	#13-55
6	3	3	10	#55-59
7	4	3	19	#45-55
8	5	4	9	#56-59
9	5	4	10	#46-59
10	5	5	10	#46-59
11	5	5	13	#46-59
12	5	6	9	#46-59
13	5	6	13	#46-59
14	6	7	11	#13-13
15	7	7	14	#13-46
16	7	7	15	#13-46
17	6	8	12	#13-13
18	7	8	16	#13-46
19	7	8	17	#13-46
20	7	11	20	#13-46
21	7	11	21	#13-46
22	7	11	22	#13-46
23	7	12	23	#13-46
24	7	12	24	#13-46
25	7	12	25	#13-46

Angles				

1	1	7	2	9	#13-55-59 
2	2	7	2	18	#13-55-45
3	3	9	2	18	#45-55-59
4	1	8	3	10	#13-55-59
5	2	8	3	19	#13-55-45
6	3	10	3	19	#45-55-59
7	4	9	4	10	#59-56-59
8	4	10	5	13	#59-56-59
9	4	9	6	13	#59-56-59
10	5	2	7	11	#13-13-55
11	6	2	7	14	#55-13-46
12	6	2	7	15	#55-13-46
13	7	11	7	14	#13-13-46
14	7	11	7	15	#13-13-46
15	8	14	7	15	#46-13-46
16	5	3	8	12	#13-13-55
17	6	3	8	16	#55-13-46
18	6	3	8	17	#55-13-46
19	7	12	8	16	#13-13-46
20	7	12	8	17	#13-13-46
21	8	16	8	17	#46-13-46
22	9	2	9	4	#55-59-56
23	9	2	9	6	#55-59-56
24	10	4	9	6	#56-59-56
25	9	3	10	4	#55-59-56
26	9	3	10	5	#55-59-56
27	10	4	10	5	#56-59-56
28	7	7	11	20	#13-13-46
29	7	7	11	21	#13-13-46
30	7	7	11	22	#13-13-46
31	8	20	11	21	#46-13-46
32	8	20	11	22	#46-13-46
33	8	21	11	22	#46-13-46
34	7	8	12	23	#13-13-46
35	7	8	12	24	#13-13-46
36	7	8	12	25	#13-13-46
37	8	23	12	24	#46-13-46
38	8	23	12	25	#46-13-46
39	8	24	12	25	#46-13-46
40	11	1	13	5	#21-59-56
41	11	1	13	6	#21-59-56
42	10	5	13	6	#56-59-56

Dihedrals

1	1	9	2	7	11	#13-13-55-59
2	2	9	2	7	14	#46-13-55-59
3	2	9	2	7	15	#46-13-55-59
4	3	18	2	7	11	#13-13-55-45
5	4	18	2	7	14	#46-13-55-45
6	4	18	2	7	15	#46-13-55-45
7	5	7	2	9	4	#13-55-59-56
8	5	7	2	9	6	#13-55-59-56
9	6	18	2	9	4	#45-55-59-56
10	6	18	2	9	6	#45-55-59-56
11	1	12	8	3	10	#13-13-55-59
12	2	16	8	3	10	#46-13-55-59
13	2	17	8	3	10	#46-13-55-59
14	3	12	8	3	19	#13-13-55-45
15	4	16	8	3	19	#46-13-55-45
16	4	17	8	3	19	#46-13-55-45
17	5	8	3	10	4	#13-55-59-56
18	5	8	3	10	5	#13-55-59-56
19	6	19	3	10	4	#45-55-59-56
20	6	19	3	10	5	#45-55-59-56
21	7	2	9	4	10	#59-56-59-55
22	8	6	9	4	10	#59-56-59-56
23	7	3	10	4	9	#59-56-59-55
24	8	5	10	4	9	#59-56-59-56
25	7	3	10	5	13	#59-56-59-56
26	8	4	10	5	13	#59-56-59-56
27	9	10	5	13	1	#59-56-59-21
28	8	10	5	13	6	#59-56-59-56
29	7	2	9	6	13	#59-56-59-55
30	8	4	9	6	13	#59-56-59-56
31	9	9	6	13	1	#59-56-59-21
32	8	9	6	13	5	#59-56-59-56
33	10	2	7	11	20	#55-13-13-46
34	10	2	7	11	21	#55-13-13-46
35	10	2	7	11	22	#55-13-13-46
36	11	14	7	11	20	#46-13-13-46
37	11	14	7	11	21	#46-13-13-46
38	11	14	7	11	22	#46-13-13-46
39	11	15	7	11	20	#46-13-13-46
40	11	15	7	11	21	#46-13-13-46
41	11	15	7	11	22	#46-13-13-46
42	10	3	8	12	23	#55-13-13-46
43	10	3	8	12	24	#55-13-13-46
44	10	3	8	12	25	#55-13-13-46
45	11	16	8	12	23	#46-13-13-46
46	11	16	8	12	24	#46-13-13-46
47	11	16	8	12	25	#46-13-13-46
48	11	17	8	12	23	#46-13-13-46
49	11	17	8	12	24	#46-13-13-46
50	11	17	8	12	25	#46-13-13-46


Bond Coeffs				

1	13.009	1.7250 #approximated as 48-21
2	14.6134	1.4630
3	20.8577	1.3400
4	18.8197	1.0100
5	21.7684	1.3240
6	11.6214	1.5290
7	14.7435	1.0900

Angle Coeffs				

1	2.1682	123.2000 #approximated as 13-55-48
2	1.5177	118.4000
3	1.5177	120.0000
4	3.0354	118.6000
5	3.4691	111.2000	
6	1.5177	109.5000
7	1.6261	110.7000
8	1.4310	107.8000
9	3.0354	119.3000
10	3.0354	129.1000
11	1.5177	115.4500 #approximated as 49-59-56

Dihedral Coeffs

1	0.0793	0.0105	-0.0216	0.0000 #approximated as 13-13-55-48	
2	0.0000	0.0000	0.0077	0.0000 #approximated as 46-13-55-48
3	-0.0082	-0.0181	0.0181	0.0000
4	0.0000	0.0000	0.0000	0.0000
5	0.0000	0.3441	0.0000	0.0000 #approximated as 13-55-48-55
6	0.0000	0.0880	0.0000	0.0000 #45-55-59-X
7	0.0000	0.3144	0.0000	0.0000 #X-56-59-X
8	0.0000	0.3144	0.0000	0.0000 #X-56-59-X	
9	0.0000	0.3144	0.0000	0.0000 #X-56-59-X
10	0.0000	0.0000	-0.0252	0.0000
11	0.0000	0.0000	0.0130	0.0000
