LAMMPS Decabromodiphenyl Ethane data file		#created by Amélie Lemay, June 2021; checked by Ian Bourg

28 atoms		
29 bonds		
48 angles
81 dihedrals	#69 proper, 12 improper	

5 atom types	
5 bond types		
7 angle types
11 dihedral types #10 proper, 1 improper		

-12.0 12.0 xlo xhi		
-12.0 12.0 ylo yhi		
-12.0 12.0 zlo zhi		

Masses		

1	12.011
2	12.011
3	12.011
4	79.904
5	1.008				

Atoms						

1	1	1	0.2	-7.785073416	2.993394926	-0.0351982948	#670(48)	"Bromobenzene CBr"
2	1	1	0.2	-6.693193746	3.885040847	-0.0245799329	#670(48)	"Bromobenzene CBr"
3	1	1	0.2	-5.350929626	3.398429621	-0.0157936072	#670(48)	"Bromobenzene CBr"
4	1	2	-0.115	-5.07923244	2.004739247	-0.0173323577	#90(48)	"Aromatic C"
5	1	1	0.2	-6.217147908	1.125893202	-0.0302040749	#670(48)	"Bromobenzene CBr"
6	1	1	0.2	-7.548407686	1.610007725	-0.0385717261	#670(48)	"Bromobenzene CBr"
7	1	3	-0.005	-3.695270331	1.319147197	-0.0040411419	#94(13)	"Ethyl Benzene -CH2-"
8	1	3	-0.005	-2.332328209	2.028346648	0.0124300277	#94(13)	"Ethyl Benzene -CH2-"
9	1	2	-0.115	-0.9483539765	1.34269018	0.0203697828	#90(48)	"Aromatic C"
10	1	1	0.2	-0.6767814021	-0.0510233969	0.0248470655	#670(48)	"Bromobenzene CBr"
11	1	1	0.2	0.1896834878	2.221458943	0.02348013	#670(48)	"Bromobenzene CBr"
12	1	1	0.2	1.520929453	1.737245533	0.0260691663	#670(48)	"Bromobenzene CBr"
13	1	1	0.2	1.757463763	0.3538265542	0.0265717362	#670(48)	"Bromobenzene CBr"
14	1	1	0.2	0.6654694261	-0.5377361437	0.0267399148	#670(48)	"Bromobenzene CBr"
15	1	4	-0.2	-3.950106897	4.705964033	-0.0026891071	#671(65)	"Bromobenzene CBr"
16	1	4	-0.2	-7.044148217	5.787454833	-0.0216647852	#671(65)	"Bromobenzene CBr"
17	1	4	-0.2	-9.59070903	3.662600976	-0.0447382232	#671(65)	"Bromobenzene CBr"
18	1	4	-0.2	-9.033439542	0.3829009159	-0.0537879536	#671(65)	"Bromobenzene CBr"
19	1	4	-0.2	-5.939085388	-0.7906950322	-0.0367893721	#671(65)	"Bromobenzene CBr"
20	1	4	-0.2	-0.0881973549	4.138081872	0.0264602919	#671(65)	"Bromobenzene CBr"
21	1	4	-0.2	3.006122639	2.964246422	0.0284739095	#671(65)	"Bromobenzene CBr"
22	1	4	-0.2	3.563068547	-0.3155242796	0.0278104863	#671(65)	"Bromobenzene CBr"
23	1	4	-0.2	1.016241857	-2.440186098	0.0290553334	#671(65)	"Bromobenzene CBr"
24	1	4	-0.2	-2.077759281	-1.358432649	0.0329263787	#671(65)	"Bromobenzene CBr"
25	1	5	0.06	-2.323599688	2.650575419	-0.889738037	#85(46)	"Alkane H-C"
26	1	5	0.06	-2.339098468	2.644903484	0.9185869183	#85(46)	"Alkane H-C"
27	1	5	0.06	-3.6857573	0.7000772803	-0.9084876041	#85(46)	"Alkane H-C"
28	1	5	0.06	-3.706747276	0.6994351347	0.8997950764	#85(46)	"Alkane H-C"

Bonds						

1	1	1	2	#48-48
2	1	2	3	#48-48
3	1	3	4	#48-48
4	1	4	5	#48-48
5	1	5	6	#48-48
6	1	1	6	#48-48
7	2	4	7	#13-48
8	3	7	8	#13-13
9	2	8	9	#13-48
10	1	9	10	#48-48
11	1	9	11	#48-48
12	1	11	12	#48-48
13	1	12	13	#48-48
14	1	13	14	#48-48
15	1	10	14	#48-48
16	4	3	15	#48-65
17	4	2	16	#48-65
18	4	1	17	#48-65
19	4	6	18	#48-65
20	4	5	19	#48-65
21	4	11	20	#48-65
22	4	12	21	#48-65
23	4	13	22	#48-65
24	4	14	23	#48-65
25	4	10	24	#48-65
26	5	8	25	#13-46
27	5	8	26	#13-46
28	5	7	28	#13-46
29	5	7	27	#13-46

Angles				

1	1	25	8	26	#46-13-46
2	1	27	7	28	#46-13-46
3	2	7	8	25	#13-13-46
4	2	7	8	26	#13-13-46
5	2	8	7	28	#13-13-46
6	2	8	7	27	#13-13-46
7	3	9	8	25	#46-13-48
8	3	9	8	26	#46-13-48
9	3	4	7	27	#46-13-48
10	3	4	7	28	#46-13-48
11	4	7	8	9	#13-13-48
12	4	4	7	8	#13-13-48
13	5	1	2	3	#48-48-48
14	5	1	6	5	#48-48-48
15	5	2	1	6	#48-48-48
16	5	10	14	13	#48-48-48
17	5	11	12	13	#48-48-48
18	5	12	13	14	#48-48-48
19	5	2	3	4	#48-48-48
20	5	4	5	6	#48-48-48
21	5	9	11	12	#48-48-48
22	5	9	10	14	#48-48-48
23	5	3	4	5	#48-48-48
24	5	10	9	11	#48-48-48
25	6	3	4	7	#13-48-48
26	6	5	4	7	#13-48-48
27	6	8	9	10	#13-48-48
28	6	8	9	11	#13-48-48
29	7	1	2	16	#48-48-65
30	7	1	6	18	#48-48-65
31	7	2	1	17	#48-48-65
32	7	2	3	15	#48-48-65
33	7	3	2	16	#48-48-65
34	7	5	6	18	#48-48-65
35	7	6	5	19	#48-48-65
36	7	6	1	17	#48-48-65
37	7	10	14	23	#48-48-65
38	7	11	12	21	#48-48-65
39	7	12	11	20	#48-48-65
40	7	12	13	22	#48-48-65
41	7	13	12	21	#48-48-65
42	7	13	14	23	#48-48-65
43	7	14	13	22	#48-48-65
44	7	14	10	24	#48-48-65
45	7	4	3	15	#48-48-65
46	7	4	5	19	#48-48-65
47	7	9	10	24	#48-48-65
48	7	9	11	20	#48-48-65

Dihedrals

1	1	25	8	7	28	#46-13-13-46
2	1	25	8	7	27	#46-13-13-46
3	1	26	8	7	28	#46-13-13-46
4	1	26	8	7	27	#46-13-13-46
5	2	4	7	8	25	#46-13-13-48
6	2	4	7	8	26	#46-13-13-48
7	2	9	8	7	27	#46-13-13-48
8	2	9	8	7	28	#46-13-13-48
9	3	7	8	9	10	#13-13-48-48
10	3	7	8	9	11	#13-13-48-48
11	3	3	4	7	8	#13-13-48-48
12	3	5	4	7	8	#13-13-48-48
13	4	10	9	8	25	#46-13-48-48
14	4	11	9	8	25	#46-13-48-48
15	4	10	9	8	26	#46-13-48-48
16	4	11	9	8	26	#46-13-48-48
17	4	3	4	7	27	#46-13-48-48
18	4	5	4	7	27	#46-13-48-48
19	4	3	4	7	28	#46-13-48-48
20	4	5	4	7	28	#46-13-48-48
21	5	15	3	2	16	#65-48-48-65 (doesn't exist in OPLS database, using 0-48-48-0)
22	5	16	2	1	17	#65-48-48-65 (doesn't exist in OPLS database, using 0-48-48-0)
23	5	17	1	6	18	#65-48-48-65 (doesn't exist in OPLS database, using 0-48-48-0)
24	5	18	6	5	19	#65-48-48-65 (doesn't exist in OPLS database, using 0-48-48-0)
25	5	20	11	12	21	#65-48-48-65 (doesn't exist in OPLS database, using 0-48-48-0)
26	5	21	12	13	22	#65-48-48-65 (doesn't exist in OPLS database, using 0-48-48-0)
27	5	22	13	14	23	#65-48-48-65 (doesn't exist in OPLS database, using 0-48-48-0)
28	5	23	14	10	24	#65-48-48-65 (doesn't exist in OPLS database, using 0-48-48-0)
29	6	7	4	3	15	#13-48-48-65 (doesn't exist in OPLS database, using 0-48-48-13)
30	6	7	4	5	19	#13-48-48-65 (doesn't exist in OPLS database, using 0-48-48-13)
31	6	8	9	11	20	#13-48-48-65 (doesn't exist in OPLS database, using 0-48-48-13)
32	6	8	9	10	24	#13-48-48-65 (doesn't exist in OPLS database, using 0-48-48-13)
33	7	2	3	4	7	#13-48-48-48
34	7	6	5	4	7	#13-48-48-48
35	7	8	9	10	14	#13-48-48-48
36	7	8	9	11	12	#13-48-48-48
37	8	1	2	3	4	#48-48-48-48
38	8	1	6	5	4	#48-48-48-48
39	8	9	11	12	13	#48-48-48-48
40	8	9	10	14	13	#48-48-48-48
41	8	2	1	6	5	#48-48-48-48
42	8	3	2	1	6	#48-48-48-48
43	8	10	14	13	12	#48-48-48-48
44	8	11	12	13	14	#48-48-48-48
45	8	2	3	4	5	#48-48-48-48
46	8	3	4	5	6	#48-48-48-48
47	8	10	9	11	12	#48-48-48-48
48	8	11	9	10	14	#48-48-48-48
49	9	1	2	3	15	#48-48-48-65
50	9	1	6	5	19	#48-48-48-65
51	9	2	1	6	18	#48-48-48-65
52	9	3	2	1	17	#48-48-48-65
53	9	5	6	1	17	#48-48-48-65
54	9	6	1	2	16	#48-48-48-65
55	9	10	14	13	22	#48-48-48-65
56	9	11	12	13	22	#48-48-48-65
57	9	12	13	14	23	#48-48-48-65
58	9	13	12	11	20	#48-48-48-65
59	9	13	14	10	24	#48-48-48-65
60	9	14	13	12	21	#48-48-48-65
61	9	3	4	5	19	#48-48-48-65
62	9	5	4	3	15	#48-48-48-65
63	9	10	9	11	20	#48-48-48-65
64	9	11	9	10	24	#48-48-48-65
65	9	4	3	2	16	#48-48-48-65
66	9	4	5	6	18	#48-48-48-65
67	9	9	10	14	23	#48-48-48-65
68	9	9	11	12	21	#48-48-48-65
69	10	4	7	8	9	#48-13-13-48 (doesn't exist in OPLS database, using 3-13-13-48 instead)
70	11	1	3	2	16	#0-0-0-48-0 (improper)
71	11	1	5	6	18	#0-0-0-48-0 (improper)
72	11	2	6	1	17	#0-0-0-48-0 (improper)
73	11	10	13	14	23	#0-0-0-48-0 (improper)
74	11	11	13	12	21	#0-0-0-48-0 (improper)
75	11	12	14	13	22	#0-0-0-48-0 (improper)
76	11	2	4	3	15	#0-0-0-48-0 (improper)
77	11	6	4	5	19	#0-0-0-48-0 (improper)
78	11	12	9	11	20	#0-0-0-48-0 (improper)
79	11	14	9	10	24	#0-0-0-48-0 (improper)
80	11	3	7	4	5	#0-0-0-48-0 (improper)
81	11	10	8	9	11	#0-0-0-48-0 (improper)

Bond Coeffs				

1	20.3374	1.4000	#48-48
2	13.7462	1.5100	#13-48
3	11.6214	1.5290	#13-13
4	13.0090	1.8700	#48-65
5	14.7435	1.0900	#13-46		

Angle Coeffs				

1	1.4310	107.80	#46-13-46
2	1.6261	110.70	#13-13-46
3	1.5177	109.50	#46-13-48
4	2.7319	114.00	#13-13-48
5	2.7319	120.00	#48-48-48
6	3.0354	120.00	#13-48-48
7	3.2522	120.00	#48-48-65

Dihedral Coeffs

1	0.0000	0.0000	0.0130	0.0000	#46-13-13-46
2	0.0000	0.0000	0.0200	0.0000	#46-13-13-48
3	0.0000	0.0000	0.0000	0.0000	#13-13-48-48
4	0.0000	0.0000	0.0000	0.0000	#46-13-48-48
5	0.0000	0.3144	0.0000	0.0000	#65-48-48-65 (doesn't exist in OPLS database, using 0-48-48-0)
6	0.0000	0.3144	0.0000	0.0000	#13-48-48-65 (doesn't exist in OPLS database, using 0-48-48-13)	
7	0.0000	0.3144	0.0000	0.0000	#13-48-48-48
8	0.0000	0.3144	0.0000	0.0000	#48-48-48-48
9	0.0000	0.3144	0.0000	0.0000	#48-48-48-65
10	0.4123	0.0000	0.0000	0.0000	#48-13-13-48 (doesn't exist in OPLS database, using 5-13-13-5 instead; alternative options yield a structure where the molecule incorrectly folds upon itself)
11	0.0000	0.2168	0.0000	0.0000	#0-0-48-0 (improper)
