LAMMPS 4 nonyphenol data file #created by Amélie Lemay, June 2021; checked by Ian	

40 atoms		
40 bonds		
73 angles
110 dihedrals #104 proper, 6 improper		

9 atom types	
7 bond types		
10 angle types
16 dihedral types #15 proper, 1 improper		

-20.0 20.0 xlo xhi		
-20.0 20.0 ylo yhi		
-20.0 20.0 zlo zhi		

Masses		

1	12.011
2	12.011
3	12.011
4	12.011
5	12.011
6	15.999
7	1.008
8	1.008
9	1.008					

Atoms						

1	1	1	0.15	-5.212212815	2.762548903	0.0058215194	#108(48)	"Phenol C-OH"
2	1	2	-0.115	-4.301816332	3.813617746	0.0230195203	#90(48)	"Aromatic C"
3	1	2	-0.115	-2.929284086	3.541522327	0.0506723267	#90(48)	"Aromatic C"
4	1	2	-0.115	-2.462025675	2.220890305	0.0575635481	#90(48)	"Aromatic C"
5	1	2	-0.115	-3.405217988	1.177701223	0.0443083071	#90(48)	"Aromatic C"
6	1	2	-0.115	-4.77397921	1.446992478	0.0167446485	#90(48)	"Aromatic C"
7	1	3	-0.005	-0.9985597331	1.844922992	0.1048696301	#94(13)	"Ethyl Benzene -CH2-"
8	1	4	-0.12	0.0302099615	2.97540073	-0.0290455351	#81(13)	"Alkane -CH2-"
9	1	4	-0.12	1.448731651	2.402015706	0.0036476124	#81(13)	"Alkane -CH2-"
10	1	4	-0.12	2.52460019	3.486856569	-0.0717256371	#81(13)	"Alkane -CH2-"
11	1	4	-0.12	3.914763582	2.851955081	0.0012327168	#81(13)	"Alkane -CH2-"
12	1	4	-0.12	5.036775618	3.888251463	-0.0610532858	#81(13)	"Alkane -CH2-"
13	1	4	-0.12	6.401826282	3.200388447	0.0208502992	#81(13)	"Alkane -CH2-"
14	1	4	-0.12	7.55269464	4.199304974	-0.078153683	#81(13)	"Alkane -CH2-"
15	1	5	-0.18	8.898730692	3.493899784	-0.0089347054	#80(13)	"Alkane CH3-"
16	1	6	-0.585	-6.557016219	2.984905874	-0.0198633	#109(5)	"Phenol -OH"
17	1	7	0.435	-6.710211331	3.943458754	-0.024538815	#110(7)	"Phenol -OH"
18	1	8	0.115	-4.636073249	4.845975006	0.0175020227	#91(49)	"Aromatic H-C"
19	1	8	0.115	-2.239162988	4.380680706	0.0682087322	#91(49)	"Aromatic H-C"
20	1	8	0.115	-5.492140891	0.6323426112	0.0058323198	#91(49)	"Aromatic H-C"
21	1	8	0.115	-3.073714779	0.1413099024	0.0568392164	#91(49)	"Aromatic H-C"
22	1	9	0.06	-0.8155431579	1.118751497	-0.6983920641	#85(46)	"Alkane H-C"
23	1	9	0.06	-0.8229426088	1.326228393	1.056627398	#85(46)	"Alkane H-C"
24	1	9	0.06	-0.1252178227	3.519111773	-0.9688714853	#85(46)	"Alkane H-C"
25	1	9	0.06	-0.0913113298	3.693894095	0.790480674	#85(46)	"Alkane H-C"
26	1	9	0.06	1.577536169	1.7046526	-0.8335858458	#85(46)	"Alkane H-C"
27	1	9	0.06	1.583687278	1.823181442	0.9258003903	#85(46)	"Alkane H-C"
28	1	9	0.06	2.396761652	4.195990384	0.7547158878	#85(46)	"Alkane H-C"
29	1	9	0.06	2.420000628	4.050931426	-1.006149519	#85(46)	"Alkane H-C"
30	1	9	0.06	4.031881878	2.14034496	-0.8255643664	#85(46)	"Alkane H-C"
31	1	9	0.06	4.003254398	2.278233379	0.9322128206	#85(46)	"Alkane H-C"
32	1	9	0.06	4.931239864	4.601088629	0.76554476	#85(46)	"Alkane H-C"
33	1	9	0.06	4.962871036	4.458079257	-0.9949290229	#85(46)	"Alkane H-C"
34	1	9	0.06	6.488587076	2.463897124	-0.7875648562	#85(46)	"Alkane H-C"
35	1	9	0.06	6.476530806	2.648957438	0.9663853196	#85(46)	"Alkane H-C"
36	1	9	0.06	7.485259575	4.930220537	0.7357672158	#85(46)	"Alkane H-C"
37	1	9	0.06	7.485156755	4.753696688	-1.021228689	#85(46)	"Alkane H-C"
38	1	9	0.06	9.71361534	4.218852896	-0.0974265568	#85(46)	"Alkane H-C"
39	1	9	0.06	9.015554514	2.964985398	0.9425202074	#85(46)	"Alkane H-C"
40	1	9	0.06	9.002154952	2.765806891	-0.8201397275	#85(46)	"Alkane H-C"

Bonds						

1	1	1	2	#48-48
2	1	2	3	#48-48
3	1	3	4	#48-48
4	1	4	5	#48-48
5	1	5	6	#48-48
6	1	1	6	#48-48
7	2	4	7	#13-48
8	3	7	8	#13-13
9	3	8	9	#13-13
10	3	9	10	#13-13
11	3	10	11	#13-13
12	3	11	12	#13-13
13	3	12	13	#13-13
14	3	13	14	#13-13
15	3	14	15	#13-13
16	4	1	16	#5-48
17	5	16	17	#5-7
18	6	2	18	#48-49
19	6	3	19	#48-49
20	6	6	20	#48-49
21	6	5	21	#48-49
22	7	7	22	#13-46
23	7	7	23	#13-46
24	7	8	24	#13-46
25	7	8	25	#13-46
26	7	9	26	#13-46
27	7	9	27	#13-46
28	7	10	28	#13-46
29	7	10	29	#13-46
30	7	11	30	#13-46
31	7	11	31	#13-46
32	7	12	32	#13-46
33	7	12	33	#13-46
34	7	13	34	#13-46
35	7	13	35	#13-46
36	7	14	36	#13-46
37	7	14	37	#13-46
38	7	15	40	#13-46
39	7	15	39	#13-46
40	7	15	38	#13-46

Angles				

1	1	1	16	17	#7-5-48
2	2	7	8	9	#13-13-13
3	2	8	9	10	#13-13-13
4	2	9	10	11	#13-13-13
5	2	10	11	12	#13-13-13
6	2	11	12	13	#13-13-13
7	2	12	13	14	#13-13-13
8	2	13	14	15	#13-13-13
9	3	22	7	23	#46-13-46
10	3	24	8	25	#46-13-46
11	3	26	9	27	#46-13-46
12	3	28	10	29	#46-13-46
13	3	30	11	31	#46-13-46
14	3	32	12	33	#46-13-46
15	3	34	13	35	#46-13-46
16	3	36	14	37	#46-13-46
17	3	38	15	40	#46-13-46
18	3	38	15	39	#46-13-46
19	3	39	15	40	#46-13-46
20	4	7	8	24	#13-13-46
21	4	7	8	25	#13-13-46
22	4	8	7	22	#13-13-46
23	4	8	7	23	#13-13-46
24	4	8	9	26	#13-13-46
25	4	8	9	27	#13-13-46
26	4	9	8	24	#13-13-46
27	4	9	8	25	#13-13-46
28	4	9	10	28	#13-13-46
29	4	9	10	29	#13-13-46
30	4	10	9	26	#13-13-46
31	4	10	9	27	#13-13-46
32	4	10	11	30	#13-13-46
33	4	10	11	31	#13-13-46
34	4	11	10	28	#13-13-46
35	4	11	10	29	#13-13-46
36	4	11	12	32	#13-13-46
37	4	11	12	33	#13-13-46
38	4	12	11	30	#13-13-46
39	4	12	11	31	#13-13-46
40	4	12	13	34	#13-13-46
41	4	12	13	35	#13-13-46
42	4	13	12	32	#13-13-46
43	4	13	12	33	#13-13-46
44	4	13	14	36	#13-13-46
45	4	13	14	37	#13-13-46
46	4	14	13	34	#13-13-46
47	4	14	13	35	#13-13-46
48	4	14	15	40	#13-13-46
49	4	14	15	39	#13-13-46
50	4	14	15	38	#13-13-46
51	4	15	14	36	#13-13-46
52	4	15	14	37	#13-13-46
53	5	4	7	22	#46-13-48
54	5	4	7	23	#46-13-48
55	6	4	7	8	#13-13-48
56	7	1	2	3	#48-48-48
57	7	1	6	5	#48-48-48
58	7	2	1	6	#48-48-48
59	7	2	3	4	#48-48-48
60	7	3	4	5	#48-48-48
61	7	4	5	6	#48-48-48
62	8	2	1	16	#5-48-48
63	8	6	1	16	#5-48-48
64	9	3	4	7	#13-48-48
65	9	5	4	7	#13-48-48
66	10	1	2	18	#48-48-49
67	10	1	6	20	#48-48-49
68	10	2	3	19	#48-48-49
69	10	3	2	18	#48-48-49
70	10	4	3	19	#48-48-49
71	10	4	5	21	#48-48-49
72	10	5	6	20	#48-48-49
73	10	6	5	21	#48-48-49

Dihedrals

1	1	2	1	16	17	#7-5-48-48
2	1	6	1	16	17	#7-5-48-48
3	2	4	7	8	9	#48-13-13-13 (modeled as 0-13-13-13)
4	3	7	8	9	10	#13-13-13-13
5	3	8	9	10	11	#13-13-13-13
6	3	9	10	11	12	#13-13-13-13
7	3	10	11	12	13	#13-13-13-13
8	3	11	12	13	14	#13-13-13-13
9	3	12	13	14	15	#13-13-13-13
10	4	7	8	9	26	#13-13-13-46
11	4	7	8	9	27	#13-13-13-46
12	4	8	9	10	28	#13-13-13-46
13	4	8	9	10	29	#13-13-13-46
14	4	9	10	11	30	#13-13-13-46
15	4	9	10	11	31	#13-13-13-46
16	4	10	9	8	24	#13-13-13-46
17	4	10	9	8	25	#13-13-13-46
18	4	10	11	12	32	#13-13-13-46
19	4	10	11	12	33	#13-13-13-46
20	4	11	10	9	26	#13-13-13-46
21	4	11	10	9	27	#13-13-13-46
22	4	11	12	13	34	#13-13-13-46
23	4	11	12	13	35	#13-13-13-46
24	4	12	11	10	28	#13-13-13-46
25	4	12	11	10	29	#13-13-13-46
26	4	12	13	14	36	#13-13-13-46
27	4	12	13	14	37	#13-13-13-46
28	4	13	12	11	30	#13-13-13-46
29	4	13	12	11	31	#13-13-13-46
30	4	14	13	12	32	#13-13-13-46
31	4	14	13	12	33	#13-13-13-46
32	4	9	8	7	22	#13-13-13-46
33	4	9	8	7	23	#13-13-13-46
34	4	13	14	15	40	#13-13-13-46
35	4	13	14	15	39	#13-13-13-46
36	4	13	14	15	38	#13-13-13-46
37	4	15	14	13	34	#13-13-13-46
38	4	15	14	13	35	#13-13-13-46
39	5	22	7	8	24	#46-13-13-46
40	5	22	7	8	25	#46-13-13-46
41	5	23	7	8	24	#46-13-13-46
42	5	23	7	8	25	#46-13-13-46
43	5	24	8	9	26	#46-13-13-46
44	5	24	8	9	27	#46-13-13-46
45	5	25	8	9	26	#46-13-13-46
46	5	25	8	9	27	#46-13-13-46
47	5	26	9	10	28	#46-13-13-46
48	5	26	9	10	29	#46-13-13-46
49	5	27	9	10	28	#46-13-13-46
50	5	27	9	10	29	#46-13-13-46
51	5	28	10	11	30	#46-13-13-46
52	5	28	10	11	31	#46-13-13-46
53	5	29	10	11	30	#46-13-13-46
54	5	29	10	11	31	#46-13-13-46
55	5	30	11	12	32	#46-13-13-46
56	5	30	11	12	33	#46-13-13-46
57	5	31	11	12	32	#46-13-13-46
58	5	31	11	12	33	#46-13-13-46
59	5	32	12	13	34	#46-13-13-46
60	5	32	12	13	35	#46-13-13-46
61	5	33	12	13	34	#46-13-13-46
62	5	33	12	13	35	#46-13-13-46
63	5	34	13	14	36	#46-13-13-46
64	5	34	13	14	37	#46-13-13-46
65	5	35	13	14	36	#46-13-13-46
66	5	35	13	14	37	#46-13-13-46
67	5	36	14	15	40	#46-13-13-46
68	5	36	14	15	39	#46-13-13-46
69	5	36	14	15	38	#46-13-13-46
70	5	37	14	15	40	#46-13-13-46
71	5	37	14	15	39	#46-13-13-46
72	5	37	14	15	38	#46-13-13-46
73	6	4	7	8	24	#46-13-13-48
74	6	4	7	8	25	#46-13-13-48
75	7	3	4	7	8	#13-13-48-48
76	7	5	4	7	8	#13-13-48-48
77	8	3	4	7	22	#46-13-48-48
78	8	5	4	7	22	#46-13-48-48
79	8	3	4	7	23	#46-13-48-48
80	8	5	4	7	23	#46-13-48-48
81	9	3	2	1	16	#5-48-48-48, modeled as 0-48-48-48
82	9	5	6	1	16	#5-48-48-48, modeled as 0-48-48-48
83	10	16	1	2	18	#5-48-48-49, modeled as 0-48-48-49
84	10	16	1	6	20	#5-48-48-49, modeled as 0-48-48-49
85	11	2	3	4	7	#13-48-48-48
86	11	6	5	4	7	#13-48-48-48
87	12	7	4	3	19	#13-48-48-49
88	12	7	4	5	21	#13-48-48-49
89	13	1	2	3	4	#48-48-48-48
90	13	1	6	5	4	#48-48-48-48
91	13	2	1	6	5	#48-48-48-48
92	13	3	2	1	6	#48-48-48-48
93	13	2	3	4	5	#48-48-48-48
94	13	3	4	5	6	#48-48-48-48
95	14	1	2	3	19	#48-48-48-49
96	14	1	6	5	21	#48-48-48-49
97	14	2	1	6	20	#48-48-48-49
98	14	6	1	2	18	#48-48-48-49
99	14	3	4	5	21	#48-48-48-49
100	14	4	3	2	18	#48-48-48-49
101	14	4	5	6	20	#48-48-48-49
102	14	5	4	3	19	#48-48-48-49
103	15	18	2	3	19	#49-48-48-49
104	15	20	6	5	21	#49-48-48-49
105	16	1	3	2	18	#0-0-48-0 (improper)
106	16	1	5	6	20	#0-0-48-0 (improper)
107	16	6	2	1	16	#0-0-48-0 (improper)
108	16	4	2	3	19	#0-0-48-0 (improper)
109	16	4	6	5	21	#0-0-48-0 (improper)
110	16	3	7	4	5	#0-0-48-0 (improper)

Bond Coeffs				

1	20.3374	1.4000	#48-48
2	13.7462	1.5100	#13-48
3	11.6214	1.5290	#13-13
4	19.5135	1.3640	#5-48
5	23.9799	0.9450	#5-7
6	15.9143	1.0800	#48-49
7	14.7435	1.09	#13-46		

Angle Coeffs				

1	1.5177	113.00	#7-5-48
2	2.5303	112.70	#13-13-13
3	1.4310	107.80	#46-13-46
4	1.6261	110.70	#13-13-46
5	1.5177	109.50	#46-13-48
6	2.7319	114.00	#13-13-48
7	2.7319	120.00	#48-48-48
8	3.0354	120.00	#5-48-48
9	3.0354	120.00	#13-48-48
10	1.5177	120.00	#48-48-49

Dihedral Coeffs

1	0	0.0729	0	0	#7-5-48-48
2	0.0742	-0.0217	0.0287	0	#48-13-13-13 (modeled as 0-13-13-13)
3	0.0564	-0.00217	0.0087	0	#13-13-13-13
4	0	0	0.0130	0	#13-13-13-46
5	0	0	0.0130	0	#46-13-13-46
6	0	0	0.0200	0	#46-13-13-48
7	0	0	0	0	#13-13-48-48
8	0	0	0	0	#46-13-48-48
9	0	0.3144	0	0	#5-48-48-48, modeled as 0-48-48-48
10	0	0.3144	0	0	#5-48-48-49, modeled as 0-48-48-49
11	0	0.3144	0	0	#13-48-48-48
12	0	0.3144	0	0	#13-48-48-49, modeled as 43-48-48-49
13	0	0.3144	0	0	#48-48-48-48
14	0	0.3144	0	0	#48-48-48-49
15	0	0.3144	0	0	#49-48-48-49
16	0	0.2168	0	0	#0-0-48-0 (improper)