LAMMPS Fluoranthene data file #created by Philip Maruri, summer 2020, checked by Ian Bourg		

26 atoms
29 bonds
48 angles
88 dihedrals

4 atom types	
4 bond types		
8 angle types
15 dihedral types

-12.0  12.0 xlo xhi		
-12.0  12.0 ylo yhi		
-12.0  12.0 zlo zhi		

Masses		

1	12.011
2	12.011
3	12.011
4	1.008

Atoms						

1	1	1	0.0000	0.8966	-0.0001	0.0001	#92(48)
2	1	2	0.0000	0.1039	-1.1395	0.0000	#460(86)
3	1	2	0.0000	0.1040	1.1392	0.0000	#460(86)
4	1	2	0.0000	-1.2885	-0.7124	0.0001	#460(86)
5	1	2	0.0000	-1.2885	0.7125	0.0000	#460(86)
6	1	1	0.0000	2.2897	0.0000	0.0000	#92(48)
7	1	3	-0.1150	0.7103	-2.3817	-0.0002	#90(48)
8	1	3	-0.1150	0.7108	2.3814	-0.0002	#90(48)
9	1	3	-0.1150	-2.4710	-1.4271	0.0000	#90(48)
10	1	3	-0.1150	-2.4708	1.4274	-0.0001	#90(48)
11	1	3	-0.1150	2.9032	-1.2678	0.0002	#90(48)
12	1	3	-0.1150	2.9036	1.2678	0.0001	#90(48)
13	1	3	-0.1150	2.1155	-2.4394	-0.0001	#90(48)
14	1	3	-0.1150	2.1159	2.4393	0.0000	#90(48)
15	1	3	-0.1150	-3.6673	-0.7040	0.0001	#90(48)
16	1	3	-0.1150	-3.6673	0.7044	0.0000	#90(48)
17	1	4	0.1150	0.1282	-3.2972	-0.0003	#91(49)
18	1	4	0.1150	0.1286	3.2969	-0.0003	#91(49)
19	1	4	0.1150	-2.4833	-2.5113	0.0000	#91(49)
20	1	4	0.1150	-2.4830	2.5116	-0.0002	#91(49)
21	1	4	0.1150	3.9868	-1.3542	0.0002	#91(49)
22	1	4	0.1150	3.9872	1.3540	0.0002	#91(49)
23	1	4	0.1150	2.6080	-3.4090	-0.0002	#91(49)
24	1	4	0.1150	2.6083	3.4090	0.0000	#91(49)
25	1	4	0.1150	-4.6154	-1.2361	0.0000	#91(49)
26	1	4	0.1150	-4.6153	1.2366	0.0000	#91(49)

Bonds						

1	1	1	2	#48-86
2	1	1	3	#48-86
3	2	1	6	#48-48
4	3	2	4	#86-86
5	1	7	2	#48-86
6	3	3	5	#86-86
7	1	8	3	#48-86
8	3	4	5	#86-86
9	1	9	4	#48-86
10	1	10	5	#48-86
11	2	6	11	#48-48
12	2	6	12	#48-48
13	2	7	13	#48-48
14	4	7	17	#48-49
15	2	8	14	#48-48
16	4	8	18	#48-49
17	2	9	15	#48-48
18	4	9	19	#48-49
19	2	10	16	#48-48
20	4	10	20	#48-49
21	2	11	13	#48-48
22	4	11	21	#48-49
23	2	12	14	#48-48
24	4	12	22	#48-49
25	4	13	23	#48-49
26	4	14	24	#48-49
27	2	15	16	#48-48
28	4	15	25	#48-49
29	4	16	26	#48-49

Angles				

1	1	2	1	3	#86-48-86
2	2	6	1	2	#48-48-86
3	2	6	1	3	#86-48-86
4	3	1	2	4	#48-86-86
5	4	1	2	7	#48-86-48
6	3	7	2	4	#48-86-86
7	3	1	3	5	#48-86-86
8	4	1	3	8	#48-86-48
9	3	8	3	5	#48-86-86
10	5	2	4	5	#86-86-86
11	3	9	4	2	#48-86-86
12	3	9	4	5	#48-86-86
13	5	3	5	4	#86-86-86
14	3	10	5	3	#48-86-86
15	3	10	5	4	#48-86-86
16	7	1	6	11	#48-48-48
17	7	1	6	12	#48-48-48
18	7	11	6	12	#48-48-48
19	2	13	7	2	#48-48-86
20	6	17	7	2	#49-48-86
21	8	13	7	17	#48-48-49
22	2	14	8	3	#48-48-86
23	6	18	8	3	#49-48-86
24	8	14	8	18	#48-48-49
25	2	15	9	4	#48-48-86
26	6	19	9	4	#49-48-86
27	8	15	9	19	#48-48-49
28	2	16	10	5	#48-48-86
29	6	20	10	5	#49-48-86
30	8	16	10	20	#48-48-49
31	7	6	11	13	#48-48-48
32	8	6	11	21	#48-48-49
33	8	13	11	21	#48-48-49
34	7	6	12	14	#48-48-48
35	8	6	12	22	#48-48-49
36	8	14	12	22	#48-48-49
37	7	7	13	11	#48-48-48
38	8	7	13	23	#48-48-49
39	8	11	13	23	#48-48-49
40	7	8	14	12	#48-48-48
41	8	8	14	24	#48-48-49
42	8	12	14	24	#48-48-49
43	7	9	15	16	#48-48-48
44	8	9	15	25	#48-48-49
45	8	16	15	25	#48-48-49
46	7	10	16	15	#48-48-48
47	8	10	16	26	#48-48-49
48	8	15	16	26	#48-48-49

Dihedrals

1	1	3	1	2	4	#86-48-86-86
2	2	3	1	2	7	#86-48-86-48
3	3	6	1	2	4	#48-48-86-86
4	4	6	1	2	7	#48-48-86-48
5	1	2	1	3	5	#86-48-86-86
6	2	2	1	3	8	#86-48-86-48
7	3	6	1	3	5	#48-48-86-86
8	4	6	1	3	8	#48-48-86-48
9	5	11	6	1	2	#48-48-48-86
10	5	12	6	1	2	#48-48-48-86
11	5	11	6	1	3	#48-48-48-86
12	5	12	6	1	3	#48-48-48-86
13	6	1	2	4	5	#48-86-86-86
14	7	1	2	4	9	#48-86-86-48
15	6	7	2	4	5	#48-86-86-86
16	7	7	2	4	9	#48-86-86-48
17	4	13	7	2	1	#48-48-86-48
18	8	17	7	2	1	#49-48-86-48
19	3	13	7	2	4	#48-48-86-86
20	9	17	7	2	4	#49-48-86-86
21	6	1	3	5	4	#48-86-86-86
22	7	1	3	5	10	#48-86-86-48
23	6	8	3	5	4	#48-86-86-48
24	7	8	3	5	10	#48-86-86-48
25	4	14	8	3	1	#48-48-86-48
26	8	18	8	3	1	#49-48-86-48
27	3	14	8	3	5	#48-48-86-86
28	9	18	8	3	5	#49-48-86-86
29	10	2	4	5	3	#86-86-86-86
30	6	10	5	4	2	#48-86-86-86
31	6	9	4	5	3	#48-86-86-86
32	7	9	4	5	10	#48-86-86-48
33	3	15	9	4	2	#48-48-86-86
34	9	19	9	4	2	#49-48-86-86
35	3	15	9	4	5	#48-48-86-86
36	9	19	9	4	5	#49-48-86-86
37	3	16	10	5	3	#48-48-86-86
38	9	20	10	5	3	#49-48-86-86
39	3	16	10	5	4	#48-48-86-86
40	9	20	10	5	4	#49-48-86-86
41	11	1	6	11	13	#48-48-48-48
42	12	1	6	11	21	#48-48-48-49
43	11	12	6	11	13	#48-48-48-48
44	12	12	6	11	21	#48-48-48-49
45	11	1	6	12	14	#48-48-48-48
46	12	1	6	12	22	#48-48-48-49
47	11	11	6	12	14	#48-48-48-48
48	12	11	6	12	22	#48-48-48-49
49	5	11	13	7	2	#48-48-48-86
50	13	23	13	7	2	#49-48-48-86
51	12	11	13	7	17	#48-48-48-49
52	14	17	7	13	23	#49-48-48-49
53	5	12	14	8	3	#48-48-48-86
54	13	24	14	8	3	#49-48-48-86
55	12	12	14	8	18	#48-48-48-49
56	14	18	8	14	24	#49-48-48-49
57	5	16	15	9	4	#48-48-48-86
58	13	25	15	9	4	#49-48-48-86
59	12	16	15	9	19	#48-48-48-49
60	14	19	9	15	25	#49-48-48-49
61	5	15	16	10	5	#48-48-48-86
62	13	26	16	10	5	#49-48-48-86
63	12	15	16	10	20	#48-48-48-49
64	14	20	10	16	26	#49-48-48-49
65	11	6	11	13	7	#48-48-48-48
66	12	6	11	13	23	#48-48-48-49
67	12	7	13	11	21	#48-48-48-49
68	14	21	11	13	23	#49-48-48-49
69	11	6	12	14	8	#48-48-48-48
70	12	6	12	14	24	#48-48-48-49
71	12	8	14	12	22	#48-48-48-49
72	14	22	12	14	24	#49-48-48-49
73	11	9	15	16	10	#48-48-48-48
74	12	9	15	16	26	#48-48-48-49
75	12	10	16	15	25	#48-48-48-49
76	14	25	15	16	26	#49-48-48-49
77	15	2	3	1	6	#0-0-48-0 (Improper)
78	15	1	11	6	12	#0-0-48-0 (Improper)
79	15	2	13	7	17	#0-0-48-0 (Improper)
80	15	3	14	8	18	#0-0-48-0 (Improper)
81	15	4	15	9	19	#0-0-48-0 (Improper)
82	15	5	16	10	20	#0-0-48-0 (Improper)
83	15	6	13	11	21	#0-0-48-0 (Improper)
84	15	6	14	12	22	#0-0-48-0 (Improper)
85	15	7	11	13	23	#0-0-48-0 (Improper)
86	15	8	12	14	24	#0-0-48-0 (Improper)
87	15	9	16	15	25	#0-0-48-0 (Improper)
88	15	10	15	16	26	#0-0-48-0 (Improper)

Bond Coeffs				

1	20.3374	1.4000	#48-86
2	20.3374	1.4000	#48-48
3	16.6949	1.4600	#86-86
4	15.9143	1.0800	#48-49

Angle Coeffs				

1	2.7319	120.00	#86-48-86 (approximated to 48-48-86)
2	2.7319	120.00	#48-48-86
3	2.7319	120.00	#48-86-86
4	2.7319	120.00	#48-86-48
5	2.7319	120.00	#86-86-86 (approximated to 48-86-86)
6	1.5177	120.00	#49-48-86
7	2.7319	120.00	#48-48-48
8	1.5177	120.00	#48-48-49

Dihedral Coeffs

1	0.0000	0.3144	0.0000	0.0000	#86-48-86-86 (approximated to 48-48-86-86)
2	0.0000	0.3144	0.0000	0.0000	#86-48-86-48 (approximated to 48-48-86-48)
3	0.0000	0.3144	0.0000	0.0000	#48-48-86-86
4	0.0000	0.3144	0.0000	0.0000	#48-48-86-48
5	0.0000	0.3144	0.0000	0.0000	#48-48-48-86
6	0.0000	0.0941	0.0000	0.0000	#48-86-86-86 (approximated to 48-86-86-48)
7	0.0000	0.0941	0.0000	0.0000	#48-86-86-48
8	0.0000	0.3144	0.0000	0.0000	#49-48-86-48
9	0.0000	0.3144	0.0000	0.0000	#49-48-86-86
10	0.0000	0.0941	0.0000	0.0000	#86-86-86-86 (approximated to 48-86-86-48)
11	0.0000	0.3144	0.0000	0.0000	#48-48-48-48
12	0.0000	0.3144	0.0000	0.0000	#48-48-48-49
13	0.0000	0.3144	0.0000	0.0000	#49-48-48-86
14	0.0000	0.3144	0.0000	0.0000	#49-48-48-49
15	0.0000	0.2168	0.0000	0.0000	#0-0-48-0 (Improper)

