LAMMPS PCB-1221 data file #created by Daniela Martinez, June 2021; checked by Ian	

22	atoms
23	bonds
36	angles
62  dihedrals	

5	atom types
5	bond types
7	angle types
14	dihedral types 

-12.0 12.0 xlo xhi	 
-12.0 12.0 ylo yhi	
-12.0 12.0 zlo zhi	

Masses		

1 1.008     #HPCB-1221
2 12.011    #CPCB-1221
3 35.453    #ClPCB-1221
4 12.011    #CPCB-1221
5 12.011    #CPCB-1221

Atoms	#atom index, molecule index, atom type, partial charge, xyz coordinate

1	1	1	0.1150	-2.554488742	1.837076727	0.0000	#OPLS Atom Type 91(49)
2	1	2	-0.1150	-1.948159729	0.940111603	0.0000	#OPLS Atom Type 90(48)
3	1	2	-0.1150	-2.562967034	-0.30768059	0.0000	#OPLS Atom Type 90(48)
4	1	1	0.1150	-3.642866688	-0.381283815	0.0000	#OPLS Atom Type 91(49)
5	1	2	-0.1150	-1.784540098	-1.460509043	0.0000	#OPLS Atom Type 90(48)
6	1	1	0.1150	-2.263529335	-2.431460643	0.0000	#OPLS Atom Type 91(49)
7	1	2	-0.1150	-0.389415208	-1.371228608	0.0000	#OPLS Atom Type 90(48)
8	1	1	0.1150	0.139533985	-2.307808984	0.0000	#OPLS Atom Type 91(49)
9	1	5	0.0000	0.27051037	-0.114557166	0.0000	#OPLS Atom Type 460(86)
10	1	2	-0.1150	-0.553817186	1.04101254	0.0000	#OPLS Atom Type 90(48)
11	1	1	0.1150	-0.15724328	2.040824673	0.0000	#OPLS Atom Type 91(49)
12	1	1	0.1150	1.911425602	2.178070752	0.0000	#OPLS Atom Type 91(49)
13	1	2	-0.1150	2.445474286	1.244479458	0.0000	#OPLS Atom Type 90(48)
14	1	5	0.0000	1.785028388	-0.011861602	0.0000	#OPLS Atom Type 460(86)
15	1	2	-0.1150	2.607883714	-1.167872994	0.0000	#OPLS Atom Type 90(48)
16	1	1	0.1150	2.209860648	-2.167135814	0.0000	#OPLS Atom Type 91(49)
17	1	3	-0.1800	4.62198018	2.906267919	0.0000	#OPLS Atom Type 206(21)
18	1	4	0.1800	3.842250815	1.333809334	0.0000	#OPLS Atom Type 205(48)
19	1	2	-0.1150	4.61861607	0.178032358	0.0000	#OPLS Atom Type 90(48)
20	1	1	0.1150	5.699214632	0.244445148	0.0000	#OPLS Atom Type 91(49)
21	1	2	-0.1150	4.00185368	-1.06858346	0.0000	#OPLS Atom Type 90(48)
22	1	1	0.1150	4.606892335	-1.96642707	0.0000	#OPLS Atom Type 91(49)

Bonds	#Bond Index, Bond Type, Atom 1, Atom 2					

1	1	2	3	#OPLS Bond Type 48-48
2	2	3	4	#OPLS Bond Type 48-49
3	1	3	5	#OPLS Bond Type 48-48
4	2	5	6	#OPLS Bond Type 48-49
5	2	1	2	#OPLS Bond Type 48-49
6	1	2	10	#OPLS Bond Type 48-48
7	1	5	7	#OPLS Bond Type 48-48
8	2	10	11	#OPLS Bond Type 48-49
9	3	9	10	#OPLS Bond Type 48-86
10	3	7	9	#OPLS Bond Type 48-86
11	2	7	8	#OPLS Bond Type 48-49
12	4	9	14	#OPLS Bond Type 86-86
13	2	12	13	#OPLS Bond Type 48-49
14	3	13	14	#OPLS Bond Type 48-86
15	3	14	15	#OPLS Bond Type 48-86
16	2	15	16	#OPLS Bond Type 48-49
17	1	13	18	#OPLS Bond Type 48-48
18	1	15	21	#OPLS Bond Type 48-48
19	5	17	18	#OPLS Bond Type 21-48
20	1	18	19	#OPLS Bond Type 48-48
21	1	19	21	#OPLS Bond Type 48-48
22	2	21	22	#OPLS Bond Type 48-49
23	2	19	20	#OPLS Bond Type 48-49


Angles	#Angle Index, Angle Type, Atom 1, Atom 2, Atom 3	

1	1	1	2	3	#OPLS Angle Type 49-48-48
2	2	3	2	10	#OPLS Angle Type 48-48-48
3	1	1	2	10	#OPLS Angle Type 49-48-48
4	1	4	3	2	#OPLS Angle Type 49-48-48
5	1	4	3	5	#OPLS Angle Type 49-48-48
6	2	2	3	5	#OPLS Angle Type 48-48-48
7	2	3	5	7	#OPLS Angle Type 48-48-48
8	1	6	5	7	#OPLS Angle Type 49-48-48
9	1	3	5	6	#OPLS Angle Type 49-48-48
10	3	5	7	9	#OPLS Angle Type 48-48-86
11	1	5	7	8	#OPLS Angle Type 49-48-48
12	4	8	7	9	#OPLS Angle Type 49-48-86
13	5	7	9	14	#OPLS Angle Type 48-86-86
14	6	7	9	10	#OPLS Angle Type 48-86-48
15	5	10	9	14	#OPLS Angle Type 48-86-86
16	3	2	10	9	#OPLS Angle Type 48-48-86
17	4	11	10	9	#OPLS Angle Type 49-48-86
18	1	2	10	11	#OPLS Angle Type 49-48-48
19	5	9	14	13	#OPLS Angle Type 48-86-86
20	5	9	14	15	#OPLS Angle Type 48-86-86
21	6	13	14	15	#OPLS Angle Type 48-86-48
22	3	14	15	21	#OPLS Angle Type 48-48-86
23	4	14	15	16	#OPLS Angle Type 49-48-86
24	1	16	15	21	#OPLS Angle Type 49-48-48
25	1	15	21	22	#OPLS Angle Type 49-48-48
26	2	15	21	19	#OPLS Angle Type 48-48-48
27	1	19	21	22	#OPLS Angle Type 49-48-48
28	2	18	19	21	#OPLS Angle Type 48-48-48
29	1	21	19	20	#OPLS Angle Type 49-48-48
30	1	18	19	20	#OPLS Angle Type 49-48-48
31	7	13	18	17	#OPLS Angle Type 21-48-48
32	2	13	18	19	#OPLS Angle Type 48-48-48
33	7	17	18	19	#OPLS Angle Type 21-48-48
34	4	14	13	12	#OPLS Angle Type 49-48-86
35	3	14	13	18	#OPLS Angle Type 48-48-86
36	1	12	13	18	#OPLS Angle Type 49-48-48


Dihedrals #Dihedral Index, Dihedral type, atoms 

1	1	4	3	2	1	#OPLS Type 49-48-48-49
2	2	4	3	2	10	#OPLS Type 49-48-48-48
3	1	4	3	5	6	#OPLS Type 49-48-48-49
4	2	4	3	5	7	#OPLS Type 49-48-48-48
5	2	3	2	10	11	#OPLS Type 49-48-48-48
6	3	3	2	10	9	#OPLS Type 48-48-48-86
7	2	3	5	7	8	#OPLS Type 49-48-48-48
8	3	3	5	7	9	#OPLS Type 48-48-48-86
9	1	1	2	10	11	#OPLS Type 49-48-48-49
10	4	1	2	10	9	#OPLS Type 49-48-48-86
11	2	1	2	3	5	#OPLS Type 49-48-48-48
12	5	2	10	9	14	#OPLS Type 48-48-86-86
13	6	2	10	9	7	#OPLS Type 48-48-86-48
14	2	2	3	5	6	#OPLS Type 49-48-48-48
15	7	2	3	5	7	#OPLS Type 48-48-48-48
16	8	11	10	9	7	#OPLS Type 49-48-86-48
17	9	11	10	9	14	#OPLS Type 49-48-86-86
18	7	10	2	3	5	#OPLS Type 48-48-48-48
19	6	10	9	7	5	#OPLS Type 48-48-86-48
20	8	10	9	7	8	#OPLS Type 49-48-86-48
21	10	10	9	14	15	#OPLS Type 48-86-86-48
22	10	10	9	14	13	#OPLS Type 48-86-86-48
23	4	9	7	5	6	#OPLS Type 49-48-48-86
24	9	9	14	13	12	#OPLS Type 49-48-86-86
25	5	9	14	13	18	#OPLS Type 48-48-86-86
26	9	9	14	15	16	#OPLS Type 49-48-86-86
27	5	9	14	15	21	#OPLS Type 48-48-86-86
28	10	7	9	14	15	#OPLS Type 48-86-86-48
29	10	7	9	14	13	#OPLS Type 48-86-86-48
30	5	5	7	9	14	#OPLS Type 48-48-86-86
31	1	6	5	7	8	#OPLS Type 49-48-48-49
32	9	8	7	9	14	#OPLS Type 49-48-86-86
33	11	14	13	18	17	#OPLS Type 21-48-48-86
34	3	14	13	18	19	#OPLS Type 48-48-48-86
35	4	14	15	21	22	#OPLS Type 49-48-48-86
36	3	14	15	21	19	#OPLS Type 48-48-48-86
37	8	12	13	14	15	#OPLS Type 49-48-86-48
38	12	12	13	18	17	#OPLS Type 21-48-48-49
39	2	12	13	18	19	#OPLS Type 49-48-48-48
40	8	13	14	15	16	#OPLS Type 49-48-86-48
41	6	13	14	15	21	#OPLS Type 48-48-86-48
42	2	13	18	19	20	#OPLS Type 49-48-48-48
43	7	13	18	19	21	#OPLS Type 48-48-48-48
44	6	15	14	13	18	#OPLS Type 48-48-86-48
45	2	15	21	19	20	#OPLS Type 49-48-48-48
46	7	15	21	19	18	#OPLS Type 48-48-48-48
47	2	16	15	21	19	#OPLS Type 49-48-48-48
48	1	16	15	21	22	#OPLS Type 49-48-48-49
49	1	22	21	19	20	#OPLS Type 49-48-48-49
50	2	22	21	19	18	#OPLS Type 49-48-48-48
51	13	21	19	18	17	#OPLS Type 21-48-48-48
52	12	20	19	18	17	#OPLS Type 21-48-48-49
53	14	1	3	2	10	#Improper Dihedral Type 0-0-48-0
54	14	2	4	3	5	#Improper Dihedral Type 0-0-48-0
55	14	3	6	5	7	#Improper Dihedral Type 0-0-48-0
56	14	5	8	7	9	#Improper Dihedral Type 0-0-48-0
57	14	2	9	10	11	#Improper Dihedral Type 0-0-48-0
58	14	12	14	13	18	#Improper Dihedral Type 0-0-48-0
59	14	14	16	15	21	#Improper Dihedral Type 0-0-48-0
60	14	15	22	21	19	#Improper Dihedral Type 0-0-48-0
61	14	21	20	19	18	#Improper Dihedral Type 0-0-48-0
62	14	19	17	18	13	#Improper Dihedral Type 0-0-48-0
#It would seem logical to also have improper dihedrals around aromatic C atoms 9 and 14 (atom type 460/86) but this improper type is not specified in OPLS.

Bond Coeffs	#Bond Index, force constant, equilibrium length	

1 20.3374 1.4000	#OPLS Bond Type 48-48
2 15.9143 1.0800	#OPLS Bond Type 48-49
3 20.3374 1.4000	#OPLS Bond Type 48-86
4 16.6949 1.4600	#OPLS Bond Type 86-86
5 13.0090 1.7250	#OPLS Bond Type 21-48

Angle Coeffs	#Angle Index, Force Constant, Equilibrium angle			
 
1	1.5177	120.00	#OPLS Angle Type 49-48-48
2	2.7319	120.00	#OPLS Angle Type 48-48-48
3	2.7319	120.00	#OPLS Angle Type 48-48-86
4	1.5177	120.00	#OPLS Angle Type 49-48-86
5	2.7319	120.00	#OPLS Angle Type 48-86-86
6	2.7319	120.00	#OPLS Angle Type 48-86-48
7	3.2522	120.00	#OPLS Angle Type 21-48-48

Dihedral Coeffs	#dihedral index, k1, k2, k3, k4

1	0.0000	0.3144	0.0000	0.0000	#OPLS Torsion Coefficient for dihedral type 49-48-48-49	
2	0.0000	0.3144	0.0000	0.0000	#OPLS Torsion Coefficient for dihedral type 49-48-48-48	
3	0.0000	0.3144	0.0000	0.0000	#OPLS Torsion Coefficient for dihedral type 48-48-48-86	
4	0.0000	0.3144	0.0000	0.0000	#OPLS Torsion Coefficient for dihedral type 49-48-48-86	
5	0.0000	0.3144	0.0000	0.0000	#OPLS Torsion Coefficient for dihedral type 48-48-86-86	
6	0.0000	0.3144	0.0000	0.0000	#OPLS Torsion Coefficient for dihedral type 48-48-86-48	
7	0.0000	0.3144	0.0000	0.0000	#OPLS Torsion Coefficient for dihedral type 48-48-48-48	
8	0.0000	0.3144	0.0000	0.0000	#OPLS Torsion Coefficient for dihedral type 49-48-86-48	
9	0.0000	0.3144	0.0000	0.0000	#OPLS Torsion Coefficient for dihedral type 49-48-86-86	
10	0.0000	0.0941	0.0000	0.0000	#OPLS Torsion Coefficient for dihedral type 48-86-86-48	
11	0.0000	0.3144	0.0000	0.0000	#Dihedral Type 11 (OPLS Type 21-48-48-86) approximated as torsion coefficient for dihedral type 0-48-48-0
12	0.0000	0.3144	0.0000	0.0000	#OPLS Torsion Coefficient for dihedral type 21-48-48-49	
13	0.0000	0.3144	0.0000	0.0000	#OPLS Torsion Coefficient for dihedral type 21-48-48-48	
14	0.0000	0.2168	0.0000	0.0000	#OPLS Torsion Coefficient for improper dihedral type 0-0-48-0

