LAMMPS 4-Bromophenyl phenyl ether data file #created by Daniela Martinez, summer 2021, checked by Ian Bourg

23 atoms
24 bonds
37 angles
64  dihedrals	

6 atom types
4 bond types
5 angle types
9 dihedral types 

-12.0 12.0 xlo xhi	 
-12.0 12.0 ylo yhi	
-12.0 12.0 zlo zhi	

Masses							
							
1 12.011 	#C OPLS Atom Type 90(48)						
2 1.008 		#H OPLS Atom Type 91(49)						
3 15.999 	#O OPLS Atom Type 119(20)						
4 12.011 	#C OPLS Atom Type 141(48)						
5 12.011 	#C OPLS Atom Type 670(48)						
6 79.904 	#Br OPLS Atom Type 671(65)						
							
Atoms						
							
1	1	2	0.115	-3.669639911	4.452039448	2.625289871	#OPLS Atom Type 91(49)
2	1	1	-0.115	-2.688759878	4.006041611	2.727687628	#OPLS Atom Type 90(48)
3	1	1	-0.115	-2.001435057	4.103135718	3.939604686	#OPLS Atom Type 90(48)
4	1	2	0.115	-2.449473074	4.623865333	4.77602445	#OPLS Atom Type 91(49)
5	1	2	0.115	-2.654536834	3.260134426	0.713045411	#OPLS Atom Type 91(49)
6	1	1	-0.115	-2.11187465	3.331376604	1.64741332	#OPLS Atom Type 90(48)
7	1	1	-0.115	-0.738985691	3.520775669	4.074024909	#OPLS Atom Type 90(48)
8	1	2	0.115	-0.21146589	3.587845027	5.016815916	#OPLS Atom Type 91(49)
9	1	4	0.085	-0.83938557	2.754850232	1.763440833	#OPLS Atom Type 141(48)
10	1	1	-0.115	-0.158221221	2.846041351	2.995356027	#OPLS Atom Type 90(48)
11	1	2	0.115	0.811129188	2.389133882	3.136458164	#OPLS Atom Type 91(49)
12	1	3	-0.17	-0.333086437	2.099598592	0.684781547	#OPLS Atom Type 119(20)
13	1	4	0.085	0.96338743	1.848718128	0.36006107	#OPLS Atom Type 141(48)
14	1	1	-0.115	2.03422096	2.654373986	0.79964093	#OPLS Atom Type 90(48)
15	1	2	0.115	1.865710918	3.521444964	1.422607827	#OPLS Atom Type 91(49)
16	1	2	0.115	0.422558463	0.137707195	-0.836388985	#OPLS Atom Type 91(49)
17	1	1	-0.115	1.234020912	0.759459118	-0.47924175	#OPLS Atom Type 90(48)
18	1	1	-0.115	3.345872716	2.354083662	0.418686691	#OPLS Atom Type 90(48)
19	1	2	0.115	4.16071499	2.978611663	0.761891255	#OPLS Atom Type 91(49)
20	1	1	-0.115	2.546346592	0.460827643	-0.857703996	#OPLS Atom Type 90(48)
21	1	2	0.115	2.739655117	-0.387115073	-1.502149555	#OPLS Atom Type 91(49)
22	1	5	0.2	3.603592576	1.256028243	-0.406898469	#OPLS Atom Type 670(48)
23	1	6	-0.2	5.395779075	0.849623173	-0.926904954	#OPLS Atom Type 671(65)
							
Bonds					
							
1	1	1	2	#OPLS Bond Type 48-49			
2	2	2	3	#OPLS Bond Type 48-48			
3	1	3	4	#OPLS Bond Type 48-49			
4	2	2	6	#OPLS Bond Type 48-48			
5	2	3	7	#OPLS Bond Type 48-48			
6	1	5	6	#OPLS Bond Type 48-49			
7	1	7	8	#OPLS Bond Type 48-49			
8	2	6	9	#OPLS Bond Type 48-48			
9	2	7	10	#OPLS Bond Type 48-48			
10	3	9	12	#OPLS Bond Type 20-48			
11	2	9	10	#OPLS Bond Type 48-48			
12	1	10	11	#OPLS Bond Type 48-49			
13	3	12	13	#OPLS Bond Type 20-48			
14	2	13	17	#OPLS Bond Type 48-48			
15	2	13	14	#OPLS Bond Type 48-48			
16	1	14	15	#OPLS Bond Type 48-49			
17	2	14	18	#OPLS Bond Type 48-48			
18	1	16	17	#OPLS Bond Type 48-49			
19	1	18	19	#OPLS Bond Type 48-49			
20	2	17	20	#OPLS Bond Type 48-48			
21	1	20	21	#OPLS Bond Type 48-49			
22	2	20	22	#OPLS Bond Type 48-48			
23	2	18	22	#OPLS Bond Type 48-48			
24	4	22	23	#OPLS Bond Type 48-65			
							
Angles					
							
1	1	1	2	6	#OPLS Angle Type 48-48-49		
2	1	1	2	3	#OPLS Angle Type 48-48-49		
3	2	3	2	6	#OPLS Angle Type 48-48-48		
4	1	2	3	4	#OPLS Angle Type 48-48-49		
5	1	4	3	7	#OPLS Angle Type 48-48-49		
6	2	2	3	7	#OPLS Angle Type 48-48-48		
7	2	3	7	10	#OPLS Angle Type 48-48-48		
8	1	3	7	8	#OPLS Angle Type 48-48-49		
9	1	8	7	10	#OPLS Angle Type 48-48-49		
10	2	9	10	7	#OPLS Angle Type 48-48-48		
11	1	7	10	11	#OPLS Angle Type 48-48-49		
12	1	9	10	11	#OPLS Angle Type 48-48-49		
13	1	2	6	5	#OPLS Angle Type 48-48-49		
14	2	2	6	9	#OPLS Angle Type 48-48-48		
15	1	5	6	9	#OPLS Angle Type 48-48-49		
16	3	9	12	13	#OPLS Angle Type 48-20-48		
17	4	12	13	17	#OPLS Angle Type 20-48-48		
18	4	12	13	14	#OPLS Angle Type 20-48-48		
19	2	14	13	17	#OPLS Angle Type 48-48-48		
20	2	13	14	18	#OPLS Angle Type 48-48-48		
21	1	13	14	15	#OPLS Angle Type 48-48-49		
22	1	15	14	18	#OPLS Angle Type 48-48-49		
23	1	13	17	16	#OPLS Angle Type 48-48-49		
24	2	13	17	20	#OPLS Angle Type 48-48-48		
25	1	16	17	20	#OPLS Angle Type 48-48-49		
26	1	17	20	21	#OPLS Angle Type 48-48-49		
27	2	17	20	22	#OPLS Angle Type 48-48-48		
28	1	21	20	22	#OPLS Angle Type 48-48-49		
29	5	20	22	23	#OPLS Angle Type 48-48-65		
30	5	18	22	23	#OPLS Angle Type 48-48-65		
31	2	18	22	20	#OPLS Angle Type 48-48-48		
32	2	14	18	22	#OPLS Angle Type 48-48-48		
33	1	14	18	19	#OPLS Angle Type 48-48-49		
34	1	19	18	22	#OPLS Angle Type 48-48-49		
35	4	6	9	12	#OPLS Angle Type 20-48-48		
36	2	6	9	10	#OPLS Angle Type 48-48-48		
37	4	10	9	12	#OPLS Angle Type 20-48-48		
							
Dihedrals						
							
1	1	1	2	6	5	#OPLS Dihedral Type 49-48-48-49	
2	2	1	2	6	9	#OPLS Dihedral Type 48-48-48-49	
3	1	1	2	3	4	#OPLS Dihedral Type 49-48-48-49	
4	2	1	2	3	7	#OPLS Dihedral Type 48-48-48-49	
5	3	2	6	9	10	#OPLS Dihedral Type 48-48-48-48	
6	4	2	6	9	12	#OPLS Dihedral Type 20-48-48-48	
7	2	2	3	7	8	#OPLS Dihedral Type 48-48-48-49	
8	3	2	3	7	10	#OPLS Dihedral Type 48-48-48-48	
9	2	3	2	6	5	#OPLS Dihedral Type 48-48-48-49	
10	3	3	2	6	9	#OPLS Dihedral Type 48-48-48-48	
11	2	3	7	10	11	#OPLS Dihedral Type 48-48-48-49	
12	3	3	7	10	9	#OPLS Dihedral Type 48-48-48-48	
13	2	4	3	2	6	#OPLS Dihedral Type 48-48-48-49	
14	1	4	3	7	8	#OPLS Dihedral Type 49-48-48-49	
15	2	4	3	7	10	#OPLS Dihedral Type 48-48-48-49	
16	2	5	6	9	10	#OPLS Dihedral Type 48-48-48-49	
17	5	5	6	9	12	#OPLS Dihedral Type 20-48-48-49	
18	3	6	2	3	7	#OPLS Dihedral Type 48-48-48-48	
19	3	6	9	10	7	#OPLS Dihedral Type 48-48-48-48	
20	2	6	9	10	11	#OPLS Dihedral Type 48-48-48-49	
21	6	6	9	12	13	#OPLS Dihedral Type 48-20-48-48	
22	4	7	10	9	12	#OPLS Dihedral Type 20-48-48-48	
23	1	8	7	10	11	#OPLS Dihedral Type 49-48-48-49	
24	2	8	7	10	9	#OPLS Dihedral Type 48-48-48-49	
25	6	9	12	13	17	#OPLS Dihedral Type 48-20-48-48	
26	6	9	12	13	14	#OPLS Dihedral Type 48-20-48-48	
27	6	10	9	12	13	#OPLS Dihedral Type 48-20-48-48	
28	5	11	10	9	12	#OPLS Dihedral Type 20-48-48-49	
29	5	12	13	17	16	#OPLS Dihedral Type 20-48-48-49	
30	4	12	13	17	20	#OPLS Dihedral Type 20-48-48-48	
31	5	12	13	14	15	#OPLS Dihedral Type 20-48-48-49	
32	4	12	13	14	18	#OPLS Dihedral Type 20-48-48-48	
33	3	13	14	18	22	#OPLS Dihedral Type 48-48-48-48	
34	2	13	14	18	19	#OPLS Dihedral Type 48-48-48-49	
35	2	13	17	20	21	#OPLS Dihedral Type 48-48-48-49	
36	3	13	17	20	22	#OPLS Dihedral Type 48-48-48-48	
37	7	14	18	22	23	#OPLS Dihedral Type 48-48-48-65	
38	3	14	18	22	20	#OPLS Dihedral Type 48-48-48-48	
39	2	14	13	17	16	#OPLS Dihedral Type 48-48-48-49	
40	3	14	13	17	20	#OPLS Dihedral Type 48-48-48-48	
41	2	15	14	13	17	#OPLS Dihedral Type 48-48-48-49	
42	1	15	14	18	19	#OPLS Dihedral Type 49-48-48-49	
43	2	15	14	18	22	#OPLS Dihedral Type 48-48-48-49	
44	1	16	17	20	21	#OPLS Dihedral Type 49-48-48-49	
45	2	16	17	20	22	#OPLS Dihedral Type 48-48-48-49	
46	3	17	13	14	18	#OPLS Dihedral Type 48-48-48-48	
47	3	17	20	22	18	#OPLS Dihedral Type 48-48-48-48	
48	7	17	20	22	23	#OPLS Dihedral Type 48-48-48-65	
49	2	18	22	20	21	#OPLS Dihedral Type 48-48-48-49	
50	8	19	18	22	23	#OPLS Dihedral Type 49-48-48-65	
51	2	19	18	22	20	#OPLS Dihedral Type 48-48-48-49	
52	8	21	20	22	23	#OPLS Dihedral Type 49-48-48-65	
53	9	1	3	2	6	#OPLS Improper Dihedral Type 0-0-48-0	
54	9	2	4	3	7	#OPLS Improper Dihedral Type 0-0-48-0	
55	9	3	8	7	10	#OPLS Improper Dihedral Type 0-0-48-0	
56	9	7	11	10	9	#OPLS Improper Dihedral Type 0-0-48-0	
57	9	6	10	9	12	#OPLS Improper Dihedral Type 0-0-48-0	
58	9	5	2	6	9	#OPLS Improper Dihedral Type 0-0-48-0	
59	9	12	14	13	17	#OPLS Improper Dihedral Type 0-0-48-0	
60	9	13	15	14	18	#OPLS Improper Dihedral Type 0-0-48-0	
61	9	14	19	18	22	#OPLS Improper Dihedral Type 0-0-48-0	
62	9	18	23	22	20	#OPLS Improper Dihedral Type 0-0-48-0	
63	9	17	22	20	21	#OPLS Improper Dihedral Type 0-0-48-0	
64	9	16	13	17	20	#OPLS Improper Dihedral Type 0-0-48-0	
							
Bond Coeffs						
							
1	15.9143	1.0800	#OPLS Bond Type 48-49				
2	20.3374	1.4000	#OPLS Bond Type 48-48				
3	19.5135	1.3640	#OPLS Bond Type 20-48				
4	13.0090	1.8700	#OPLS Bond Type 48-65				
							
Angle Coeffs					
 							
1	1.5177	120.00	#OPLS Angle Type 48-48-49				
2	2.7319	120.00	#OPLS Angle Type 48-48-48				
3	3.2522	111.00	#OPLS Angle Type 48-20-48				
4	3.0354	120.00	#OPLS Angle Type 20-48-48				
5	3.2522	120.00	#OPLS Angle Type 48-48-65				
							
Dihedral Coeffs				
							
1	0	0.3144	0	0	#OPLS Dihedral Type 49-48-48-49		
2	0	0.3144	0	0	#OPLS Dihedral Type 48-48-48-49		
3	0	0.3144	0	0	#OPLS Dihedral Type 48-48-48-48		
4	0	0.3144	0	0	#Type 4 (OPLS Dihedral Type 20-48-48-48) approximated as OPLS dihedral type 0-48-48-48		
5	0	0.3144	0	0	#Type 5 (OPLS Dihedral Type 20-48-48-49) approximated as OPLS dihedral type 0-48-48-49		
6	0	0.1084	0	0	#Type 6 (OPLS Dihedral Type 48-20-48-48) approximated as OPLS dihedral type 3-20-48-48		
7	0	0.3144	0	0	#OPLS Dihedral Type 48-48-48-65		
8	0	0.3144	0	0	#OPLS Dihedral Type 49-48-48-65		
9	0	0.2168	0	0	#OPLS Improper Dihedral Type 0-0-48-0		
