LAMMPS Isoprene data file #created by Amélie Lemay, July 2021; checked by Jennie			

13 atoms		
12 bonds		
18 angles
22 dihedrals	#18 proper, 4 improper	

6 atom types	
4 bond types		
5 angle types
5 dihedral types		#4 proper, 1 improper	

-20.0 20.0 xlo xhi		
-20.0 20.0 ylo yhi		
-20.0 20.0 zlo zhi		

Masses		

1	12.011
2	12.011
3	12.011
4	12.011
5	1.008
6	1.008					

Atoms						

1	1	1	0	-0.5185	0.0447	-0.0001	#86(47)	"Alkene R2-C="
2	1	2	-0.18	-0.6822	-1.4501	0	#80(13)	"Alkane CH3-"
3	1	3	-0.115	0.8202	0.6168	0	#87(47)	"Alkene RH-C="
4	1	4	-0.23	-1.5949	0.8486	0	#88(47)	"Alkene H2-C="
5	1	4	-0.23	1.9754	-0.06	0	#88(47)	"Alkene H2-C="
6	1	5	0.06	-0.2221	-1.8912	-0.8909	#85(46)	"Alkane H-C"
7	1	5	0.06	-1.737	-1.7472	0.0001	#85(46)	"Alkane H-C"
8	1	5	0.06	-0.2221	-1.8911	0.8909	#85(46)	"Alkane H-C"
9	1	6	0.115	0.8832	1.7038	0.0001	#89(46)	"Alkene H-C="
10	1	6	0.115	-2.6016	0.4428	0	#89(46)	"Alkene H-C="
11	1	6	0.115	-1.5045	1.9305	0	#89(46)	"Alkene H-C="
12	1	6	0.115	2.9182	0.4777	0	#89(46)	"Alkene H-C="
13	1	6	0.115	2.0229	-1.1428	-0.0001	#89(46)	"Alkene H-C="

Bonds						

1	1	1	2	#13-47
2	2	1	3	#47-47
3	2	1	4	#47-47
4	3	2	6	#13-46
5	3	2	7	#13-46
6	3	2	8	#13-46
7	2	3	5	#47-47
8	4	3	9	#46-47
9	4	4	10	#46-47
10	4	4	11	#46-47
11	4	5	12	#46-47
12	4	5	13	#46-47

Angles				

1	1	6	2	7	#46-13-46
2	1	6	2	8	#46-13-46
3	1	7	2	8	#46-13-46
4	2	1	2	6	#46-13-47
5	2	1	2	7	#46-13-47
6	2	1	2	8	#46-13-47
7	3	10	4	11	#46-47-46
8	3	12	5	13	#46-47-46
9	4	1	3	9	#46-47-47
10	4	5	3	9	#46-47-47
11	4	1	4	10	#46-47-47
12	4	1	4	11	#46-47-47
13	4	3	5	12	#46-47-47
14	4	3	5	13	#46-47-47
15	5	2	1	3	#13-47-47
16	5	2	1	4	#13-47-47
17	5	4	1	3	#47-47-47 does not exist, using 13-47-47
18	5	1	3	5	#47-47-47 does not exist, using 13-47-47

Dihedrals

1	1	3	1	2	6	#46-13-47-47
2	1	3	1	2	7	#46-13-47-47
3	1	3	1	2	8	#46-13-47-47
4	1	4	1	2	6	#46-13-47-47
5	1	4	1	2	7	#46-13-47-47
6	1	4	1	2	8	#46-13-47-47
7	2	1	3	5	12	#0-47-47-0
8	2	1	3	5	13	#0-47-47-0
9	2	2	1	3	5	#0-47-47-0
10	2	3	1	4	10	#0-47-47-0
11	2	3	1	4	11	#0-47-47-0
12	2	4	1	3	5	#0-47-47-0
13	2	4	1	3	9	#0-47-47-0
14	3	2	1	3	9	#13-47-47-46
15	3	2	1	4	10	#13-47-47-46
16	3	2	1	4	11	#13-47-47-46
17	4	9	3	5	12	#46-47-47-46
18	4	9	3	5	13	#46-47-47-46
19	5	1	5	3	9	#0-0-47-0 (improper)
20	5	1	10	4	11	#0-0-47-0 (improper)
21	5	2	3	1	4	#0-0-47-0 (improper)
22	5	3	12	5	13	#0-0-47-0 (improper)

Bond Coeffs				

1	13.74617535	1.51	#13-47
2	23.80646773	1.34	#47-47
3	14.74353193	1.09	#13-46
4	14.74353193	1.08	#46-47		

Angle Coeffs				

1	1.430989863	107.8	#46-13-46
2	1.517716522	109.5	#46-13-47
3	1.517716522	117	#46-47-46
4	1.517716522	120	#46-47-47
5	3.035433044	124	#13-47-47

Dihedral Coeffs

1	0	0	-0.01613115846	0	#46-13-47-47
2	0	0.6070866087	0	0	#0-47-47-0
3	0	0.6070866087	0	0	#13-47-47-46
4	0	0.6070866087	0	0	#46-47-47-46
5	0	1.300899876	0	0	#0-0-47-0 (improper)
