LAMMPS PFDS data file #created by Ethan Sontarp, July 2021; checked by Jennie	

35 atoms		
34 bonds		
66 angles
90 dihedrals

5 atom types	
4 bond types		
7 angle types
7 dihedral types	

-20.0 20.0 xlo xhi		
-20.0 20.0 ylo yhi		
-20.0 20.0 zlo zhi		

Masses		

1 12.011 	#Perfluoroalkane C (CF3-)
2 18.998 	#Perfluoroalkane F
3 12.011 	#Perfluoroalkane C (-CF2-)
4 32.060 	#Sulfone S R-SO2-R
5 15.999		#Sulfone O R-SO2-R

Atoms						

1 1 1 0.36 -9.836952131 -9.088534703 2.02116917 #OPLS atom type 791(13)
2 1 2 -0.12 -10.41104184 -7.9622612 2.582964805 #OPLS atom type 795(1)
3 1 2 -0.12 -10.68664135 -10.161605 2.226765143 #OPLS atom type 795(1)
4 1 2 -0.12 -9.697444082 -8.895757786 0.658357322 #OPLS atom type 795(1)
5 1 3 0.24 -8.47572095 -9.38703276 2.671842392 #OPLS atom type 792(13)
6 1 2 -0.12 -8.689033247 -9.606589743 4.023205092 #OPLS atom type 795(1)
7 1 2 -0.12 -7.983100052 -10.55430445 2.111003609 #OPLS atom type 795(1)
8 1 3 0.24 -7.442269004 -8.238745479 2.480952069 #OPLS atom type 792(13)
9 1 2 -0.12 -7.957073794 -7.071676329 3.021663096 #OPLS atom type 795(1)
10 1 2 -0.12 -7.23548159 -8.043565772 1.124845455 #OPLS atom type 795(1)
11 1 3 0.24 -6.082477011 -8.556802321 3.164912524 #OPLS atom type 792(13)
12 1 2 -0.12 -6.303751701 -8.728193321 4.522349028 #OPLS atom type 795(1)
13 1 2 -0.12 -5.593094891 -9.744890631 2.646747831 #OPLS atom type 795(1)
14 1 3 0.24 -5.008267613 -7.443541336 2.963037434 #OPLS atom type 792(13)
15 1 2 -0.12 -5.492631151 -6.24457718 3.459895071 #OPLS atom type 795(1)
16 1 2 -0.12 -4.764090647 -7.293055921 1.607406917 #OPLS atom type 795(1)
17 1 3 0.24 -3.673897755 -7.79054208 3.687214299 #OPLS atom type 792(13)
18 1 2 -0.12 -3.932066057 -7.915446777 5.043086823 #OPLS atom type 795(1)
19 1 2 -0.12 -3.216599207 -9.009490275 3.213664346 #OPLS atom type 795(1)
20 1 3 0.24 -2.548753786 -6.729721333 3.487310003 #OPLS atom type 792(13)
21 1 2 -0.12 -2.993532273 -5.49864929 3.940753044 #OPLS atom type 795(1)
22 1 2 -0.12 -2.260994589 -6.624530931 2.135853475 #OPLS atom type 795(1)
23 1 3 0.24 -1.251569446 -7.118874528 4.259161011 #OPLS atom type 792(13)
24 1 2 -0.12 -1.549841326 -7.20268281 5.609927322 #OPLS atom type 795(1)
25 1 2 -0.12 -0.829367612 -8.364880616 3.824607099 #OPLS atom type 795(1)
26 1 3 0.24 -0.080108111 -6.113432506 4.073837062 #OPLS atom type 792(13)
27 1 2 -0.12 -0.476150864 -4.855183884 4.496944985 #OPLS atom type 795(1)
28 1 2 -0.12 0.259433206 -6.042932325 2.732118092 #OPLS atom type 795(1)
29 1 3 0.23 1.170824412 -6.538044689 4.882491632 #OPLS atom type 792(13)
30 1 2 -0.16 0.878661011 -6.581506179 6.234549152 #OPLS atom type 795(1)
31 1 2 -0.16 1.599089599 -7.791472718 4.481597362 #OPLS atom type 795(1)
32 1 4 1.02 2.557647145 -5.377669659 4.647314761 #OPLS atom type 434(79)
33 1 5 -0.6433 3.326391364 -5.638454605 3.343265713 #OPLS atom type 435(23)
34 1 5 -0.6433 3.660970177 -5.623025703 5.68805026 #OPLS atom type 435(23)
35 1 5 -0.6433 2.291674015 -3.68277568 4.69049135 #OPLS atom type 435(23)
#Atoms 29-35 modified in same fashion as Lopes and Pádua, 2004 Molecular Force Field for Ionic Liquids Composed of Triflate or Bistriflylimide Anions

Bonds						

1 1 1 2 #C-F bond OPLS (13-1)
2 1 1 3 #C-F bond OPLS (13-1)
3 1 1 4 #C-F bond OPLS (13-1)
4 2 1 5 #C-C bond OPLS (13-13)
5 1 5 6 #C-F bond OPLS (13-1)
6 1 5 7 #C-F bond OPLS (13-1)
7 2 5 8 #C-C bond OPLS (13-13)
8 1 8 9 #C-F bond OPLS (13-1)
9 1 8 10 #C-F bond OPLS (13-1)
10 2 8 11 #C-C bond OPLS (13-13)
11 1 11 12 #C-F bond OPLS (13-1)
12 1 11 13 #C-F bond OPLS (13-1)
13 2 11 14 #C-C bond OPLS (13-13)
14 1 14 15 #C-F bond OPLS (13-1)
15 1 14 16 #C-F bond OPLS (13-1)
16 2 14 17 #C-C bond OPLS (13-13)
17 1 17 18 #C-F bond OPLS (13-1)
18 1 17 19 #C-F bond OPLS (13-1)
19 2 17 20 #C-C bond OPLS (13-13)
20 1 20 21 #C-F bond OPLS (13-1)
21 1 20 22 #C-F bond OPLS (13-1)
22 2 20 23 #C-C bond OPLS (13-13)
23 1 23 24 #C-F bond OPLS (13-1)
24 1 23 25 #C-F bond OPLS (13-1)
25 2 23 26 #C-C bond OPLS (13-13)
26 1 26 27 #C-F bond OPLS (13-1)
27 1 26 28 #C-F bond OPLS (13-1)
28 2 26 29 #C-C bond OPLS (13-13)
29 1 29 30 #C-F bond OPLS (13-1)
30 1 29 31 #C-F bond OPLS (13-1)
31 3 29 32 #C-S bond OPLS (13-79)
32 4 32 33 #S=O bond OPLS (79-23)
33 4 32 34 #S=O bond OPLS (79-23)
34 4 32 35 #S-O bond OPLS (79-23)

Angles				

1 1 2 1 3 #F-C-F angle OPLS (1-13-1)
2 1 2 1 4 #F-C-F angle OPLS (1-13-1)
3 1 3 1 4 #F-C-F angle OPLS (1-13-1)
4 1 6 5 7 #F-C-F angle OPLS (1-13-1)
5 1 9 8 10 #F-C-F angle OPLS (1-13-1)
6 1 12 11 13 #F-C-F angle OPLS (1-13-1)
7 1 15 14 16 #F-C-F angle OPLS (1-13-1)
8 1 18 17 19 #F-C-F angle OPLS (1-13-1)
9 1 21 20 22 #F-C-F angle OPLS (1-13-1)
10 1 24 23 25 #F-C-F angle OPLS (1-13-1)
11 1 27 26 28 #F-C-F angle OPLS (1-13-1)
12 1 30 29 31 #F-C-F angle OPLS (1-13-1)
13 2 2 1 5 #F-C-C angle OPLS (1-13-13)
14 2 3 1 5 #F-C-C angle OPLS (1-13-13)
15 2 4 1 5 #F-C-C angle OPLS (1-13-13)
16 2 1 5 6 #F-C-C angle OPLS (1-13-13)
17 2 1 5 7 #F-C-C angle OPLS (1-13-13)
18 2 6 5 8 #F-C-C angle OPLS (1-13-13)
19 2 7 5 8 #F-C-C angle OPLS (1-13-13)
20 2 5 8 9 #F-C-C angle OPLS (1-13-13)
21 2 9 8 11 #F-C-C angle OPLS (1-13-13)
22 2 5 8 10 #F-C-C angle OPLS (1-13-13)
23 2 10 8 11 #F-C-C angle OPLS (1-13-13)
24 2 8 11 12 #F-C-C angle OPLS (1-13-13)
25 2 12 11 14 #F-C-C angle OPLS (1-13-13)
26 2 8 11 13 #F-C-C angle OPLS (1-13-13)
27 2 13 11 14 #F-C-C angle OPLS (1-13-13)
28 2 11 14 15 #F-C-C angle OPLS (1-13-13)
29 2 15 14 17 #F-C-C angle OPLS (1-13-13)
30 2 11 14 16 #F-C-C angle OPLS (1-13-13)
31 2 16 14 17 #F-C-C angle OPLS (1-13-13)
32 2 14 17 18 #F-C-C angle OPLS (1-13-13)
33 2 18 17 20 #F-C-C angle OPLS (1-13-13)
34 2 14 17 19 #F-C-C angle OPLS (1-13-13)
35 2 19 17 20 #F-C-C angle OPLS (1-13-13)
36 2 17 20 21 #F-C-C angle OPLS (1-13-13)
37 2 21 20 23 #F-C-C angle OPLS (1-13-13)
38 2 17 20 22 #F-C-C angle OPLS (1-13-13)
39 2 22 20 23 #F-C-C angle OPLS (1-13-13)
40 2 20 23 24 #F-C-C angle OPLS (1-13-13)
41 2 24 23 26 #F-C-C angle OPLS (1-13-13)
42 2 20 23 25 #F-C-C angle OPLS (1-13-13)
43 2 25 23 26 #F-C-C angle OPLS (1-13-13)
44 2 23 26 27 #F-C-C angle OPLS (1-13-13)
45 2 27 26 29 #F-C-C angle OPLS (1-13-13)
46 2 23 26 28 #F-C-C angle OPLS (1-13-13)
47 2 28 26 29 #F-C-C angle OPLS (1-13-13)
48 2 26 29 30 #F-C-C angle OPLS (1-13-13)
49 2 26 29 31 #F-C-C angle OPLS (1-13-13)
50 3 1 5 8 #C-C-C angle OPLS (13-13-13)
51 3 5 8 11 #C-C-C angle OPLS (13-13-13)
52 3 8 11 14 #C-C-C angle OPLS (13-13-13)
53 3 11 14 17 #C-C-C angle OPLS (13-13-13)
54 3 14 17 20 #C-C-C angle OPLS (13-13-13)
55 3 17 20 23 #C-C-C angle OPLS (13-13-13)
56 3 20 23 26 #C-C-C angle OPLS (13-13-13)
57 3 23 26 29 #C-C-C angle OPLS (13-13-13)
58 4 26 29 32 #C-C-S angle OPLS (13-13-79)
59 5 30 29 32 #F-C-S angle OPLS (1-13-79)
60 5 31 29 32 #F-C-S angle OPLS (1-13-79)
61 6 29 32 33 #C-S=O angle OPLS (13-79-23)
62 6 29 32 34 #C-S=O angle OPLS (13-79-23)
63 6 29 32 35 #C-S-O angle OPLS (13-79-23)
64 7 33 32 34 #O=S=O angle OPLS (23-79-23)
65 7 33 32 35 #O=S-O angle OPLS (23-79-23)
66 7 34 32 35 #O=S-O angle OPLS (23-79-23)

Dihedrals

1 1 2 1 5 6 #F-C-C-F dihedral OPLS (1-13-13-1)
2 1 2 1 5 7 #F-C-C-F dihedral OPLS (1-13-13-1)
3 1 3 1 5 6 #F-C-C-F dihedral OPLS (1-13-13-1)
4 1 3 1 5 7 #F-C-C-F dihedral OPLS (1-13-13-1)
5 1 4 1 5 6 #F-C-C-F dihedral OPLS (1-13-13-1)
6 1 4 1 5 7 #F-C-C-F dihedral OPLS (1-13-13-1)
7 1 6 5 8 9 #F-C-C-F dihedral OPLS (1-13-13-1)
8 1 6 5 8 10 #F-C-C-F dihedral OPLS (1-13-13-1)
9 1 7 5 8 9 #F-C-C-F dihedral OPLS (1-13-13-1)
10 1 7 5 8 10 #F-C-C-F dihedral OPLS (1-13-13-1)
11 1 9 8 11 12 #F-C-C-F dihedral OPLS (1-13-13-1)
12 1 9 8 11 13 #F-C-C-F dihedral OPLS (1-13-13-1)
13 1 10 8 11 12 #F-C-C-F dihedral OPLS (1-13-13-1)
14 1 10 8 11 13 #F-C-C-F dihedral OPLS (1-13-13-1)
15 1 12 11 14 15 #F-C-C-F dihedral OPLS (1-13-13-1)
16 1 12 11 14 16 #F-C-C-F dihedral OPLS (1-13-13-1)
17 1 13 11 14 15 #F-C-C-F dihedral OPLS (1-13-13-1)
18 1 13 11 14 16 #F-C-C-F dihedral OPLS (1-13-13-1)
19 1 15 14 17 18 #F-C-C-F dihedral OPLS (1-13-13-1)
20 1 15 14 17 19 #F-C-C-F dihedral OPLS (1-13-13-1)
21 1 16 14 17 18 #F-C-C-F dihedral OPLS (1-13-13-1)
22 1 16 14 17 19 #F-C-C-F dihedral OPLS (1-13-13-1)
23 1 18 17 20 21 #F-C-C-F dihedral OPLS (1-13-13-1)
24 1 18 17 20 22 #F-C-C-F dihedral OPLS (1-13-13-1)
25 1 19 17 20 21 #F-C-C-F dihedral OPLS (1-13-13-1)
26 1 19 17 20 22 #F-C-C-F dihedral OPLS (1-13-13-1)
27 1 21 20 23 24 #F-C-C-F dihedral OPLS (1-13-13-1)
28 1 21 20 23 25 #F-C-C-F dihedral OPLS (1-13-13-1)
29 1 22 20 23 24 #F-C-C-F dihedral OPLS (1-13-13-1)
30 1 22 20 23 25 #F-C-C-F dihedral OPLS (1-13-13-1)
31 1 24 23 26 27 #F-C-C-F dihedral OPLS (1-13-13-1)
32 1 24 23 26 28 #F-C-C-F dihedral OPLS (1-13-13-1)
33 1 25 23 26 27 #F-C-C-F dihedral OPLS (1-13-13-1)
34 1 25 23 26 28 #F-C-C-F dihedral OPLS (1-13-13-1)
35 1 27 26 29 30 #F-C-C-F dihedral OPLS (1-13-13-1)
36 1 27 26 29 31 #F-C-C-F dihedral OPLS (1-13-13-1)
37 1 28 26 29 30 #F-C-C-F dihedral OPLS (1-13-13-1)
38 1 28 26 29 31 #F-C-C-F dihedral OPLS (1-13-13-1)
39 2 2 1 5 8 #F-C-C-C dihedral OPLS (1-13-13-13)
40 2 3 1 5 8 #F-C-C-C dihedral OPLS (1-13-13-13)
41 2 4 1 5 8 #F-C-C-C dihedral OPLS (1-13-13-13)
42 2 6 5 8 11 #F-C-C-C dihedral OPLS (1-13-13-13)
43 2 7 5 8 11 #F-C-C-C dihedral OPLS (1-13-13-13)
44 2 9 8 11 14 #F-C-C-C dihedral OPLS (1-13-13-13)
45 2 10 8 11 14 #F-C-C-C dihedral OPLS (1-13-13-13)
46 2 5 8 11 12 #F-C-C-C dihedral OPLS (1-13-13-13)
47 2 12 11 14 17 #F-C-C-C dihedral OPLS (1-13-13-13)
48 2 5 8 11 13 #F-C-C-C dihedral OPLS (1-13-13-13)
49 2 13 11 14 17 #F-C-C-C dihedral OPLS (1-13-13-13)
50 2 8 11 14 15 #F-C-C-C dihedral OPLS (1-13-13-13)
51 2 15 14 17 20 #F-C-C-C dihedral OPLS (1-13-13-13)
52 2 8 11 14 16 #F-C-C-C dihedral OPLS (1-13-13-13)
53 2 16 14 17 20 #F-C-C-C dihedral OPLS (1-13-13-13)
54 2 11 14 17 18 #F-C-C-C dihedral OPLS (1-13-13-13)
55 2 18 17 20 23 #F-C-C-C dihedral OPLS (1-13-13-13)
56 2 11 14 17 19 #F-C-C-C dihedral OPLS (1-13-13-13)
57 2 19 17 20 23 #F-C-C-C dihedral OPLS (1-13-13-13)
58 2 14 17 20 21 #F-C-C-C dihedral OPLS (1-13-13-13)
59 2 21 20 23 26 #F-C-C-C dihedral OPLS (1-13-13-13)
60 2 14 17 20 22 #F-C-C-C dihedral OPLS (1-13-13-13)
61 2 22 20 23 26 #F-C-C-C dihedral OPLS (1-13-13-13)
62 2 17 20 23 24 #F-C-C-C dihedral OPLS (1-13-13-13)
63 2 24 23 26 29 #F-C-C-C dihedral OPLS (1-13-13-13)
64 2 17 20 23 25 #F-C-C-C dihedral OPLS (1-13-13-13)
65 2 25 23 26 29 #F-C-C-C dihedral OPLS (1-13-13-13)
66 2 20 23 26 27 #F-C-C-C dihedral OPLS (1-13-13-13)
67 2 20 23 26 28 #F-C-C-C dihedral OPLS (1-13-13-13)
68 2 23 26 29 30 #F-C-C-C dihedral OPLS (1-13-13-13)
69 2 23 26 29 31 #F-C-C-C dihedral OPLS (1-13-13-13)
70 2 1 5 8 9 #F-C-C-C dihedral OPLS (1-13-13-13)
71 2 1 5 8 10 #F-C-C-C dihedral OPLS (1-13-13-13)
72 3 1 5 8 11 #C-C-C-C dihedral OPLS (13-13-13-13)
73 3 5 8 11 14 #C-C-C-C dihedral OPLS (13-13-13-13)
74 3 8 11 14 17 #C-C-C-C dihedral OPLS (13-13-13-13)
75 3 11 14 17 20 #C-C-C-C dihedral OPLS (13-13-13-13)
76 3 14 17 20 23 #C-C-C-C dihedral OPLS (13-13-13-13)
77 3 17 20 23 26 #C-C-C-C dihedral OPLS (13-13-13-13)
78 3 20 23 26 29 #C-C-C-C dihedral OPLS (13-13-13-13)
79 4 23 26 29 32 #C-C-C-S dihedral OPLS (13-13-13-79)
80 5 30 29 32 33 #F-C-S=0 dihedral OPLS (1-13-79-23)
81 5 30 29 32 34 #F-C-S=0 dihedral OPLS (1-13-79-23)
82 5 30 29 32 35 #F-C-S-0 dihedral OPLS (1-13-79-23)
83 5 31 29 32 33 #F-C-S=0 dihedral OPLS (1-13-79-23)
84 5 31 29 32 34 #F-C-S=0 dihedral OPLS (1-13-79-23)
85 5 31 29 32 35 #F-C-S-0 dihedral OPLS (1-13-79-23)
86 6 26 29 32 33 #C-C-S=0 dihedral OPLS (13-13-79-23)
87 6 26 29 32 34 #C-C-S=0 dihedral OPLS (13-13-79-23)
88 6 26 29 32 35 #C-C-S-0 dihedral OPLS (13-13-79-23)
89 7 27 26 29 32 #F-C-C-S dihedral OPLS (1-13-13-79)
90 7 28 26 29 32 #F-C-C-S dihedral OPLS (1-13-13-79)

Bond Coeffs				

1	15.9143678	1.36	#force constant and equilibrium length for bond type 1 (13-1)
2	11.6213912	1.529	#force constant and equilibrium length for bond type 2 (13-13)
3	14.743556	1.77	#force constant and equilibrium length for bond type 3 (13-79)
4   30.35438    1.44    #force constant and equilibrium length for bond type 4 (23-79)

Angle Coeffs				

1	3.3389818	109.1	#force constant and equilibrium angle for angle type 1 (1-13-1)
2	2.16817		109.5	#force constant and equilibrium angle for angle type 2 (1-13-13)
3	2.53025439	112.7	#force constant and equilibrium angle for angle type 3 (13-13-13)
4	2.53025439	108.6	#force constant and equilibrium angle for angle type 4 (13-13-79)
5	2.16817	    109.5	#force constant and equilibrium angle for angle type 5 (1-13-79) 
6	3.2088916	108.9	#force constant and equilibrium angle for angle type 6 (13-79-23) 
7	4.5097936	119 	#force constant and equilibrium angle for angle type 7 (23-79-23)

Dihedral Coeffs

1	-0.1084085	0			0.01084085	0	#torsions for dihedral type 1 (1-13-13-1)
2	0.01300902	-0.01734536	0.01734536	0 	#torsions for dihedral type 2 (1-13-13-13)
3	0.287152435	0.041108503	-0.060188399	-0.091843681	#torsions for dihedral type 3 (13-13-13-13)
4	0.054724611	-0.008585953	0.020163981	0 	#torsions for dihedral type 4 (13-13-13-79)
5	0        	0		0.015	        0	#torsions for dihedral type 5 (1-13-79-23) * No exact OPLS-AA parameters for type 5 - used parameters from Lopes and Padua, 2004
6	0        	0			0	        0	#torsions for dihedral type 6 (13-13-79-23)
7	0        	0			0.019600257	0	#torsions for dihedral type 7 (1-13-13-79) * No OPLS-AA parameters for type 7 - used OPLS (46-13-13-79) for highest degree of 																								#specificity with H-C (46) behaving similarly to F-C (1)