LAMMPS Glyphosate data file   #created by Philip Maruri, July 2020, checked by Ian Bourg

16 atoms
15 bonds
27 angles
34 dihedrals

10 atom types	
7 bond types		
13 angle types
11 dihedral types

-12.0  12.0 xlo xhi		
-12.0  12.0 ylo yhi		
-12.0  12.0 zlo zhi		

Masses		

1	30.974
2	15.999
3	15.999
4	14.007
5	12.011
6	12.011
7	12.011
8	1.008
9	1.008
10	1.008

Atoms						

1	1	1	1.6200	-2.5241	-0.0814	-0.0417	#391(64)	"Me MePhosphonate P"
2	1	2	-1.1200	-2.2879	-0.7845	-1.3731	#387(52)	"Me Phosphate O=PO2"
3	1	2	-1.1200	-3.6195	0.9662	0.0200	#387(52)	"Me Phosphate O=PO2"
4	1	2	-1.1200	-2.3043	-0.9523	1.1893	#387(52)	"Me Phosphate O=PO2"
5	1	3	-0.7090	3.9910	0.5937	0.0185	#784(52)	"GLY Zwitterion O"
6	1	3	-0.7090	2.7464	-1.3230	-0.0971	#784(52)	"GLY Zwitterion O"
7	1	4	-0.0350	0.3050	0.0896	-0.0205	#783(53)	"GLY Zwitterion N" (charge adjusted by +0.317)
8	1	5	-0.4200	-0.9079	0.9635	0.0359	#396(13)	"Me MePhosphonate CH3-P" (charge adjusted by +0.09)
9	1	6	-0.0290	1.6230	0.7760	0.0263	#781(13)	"GLY Zwitterion CA"
10	1	7	0.7000	2.9160	-0.0741	-0.0228	#782(3)	"GLY Zwitterion C"
11	1	8	0.0800	-0.8990	1.5115	0.9823	#397(46)	"Me MePhosphonate CH3-P"
12	1	8	0.0800	-0.8933	1.6353	-0.8269	#397(46)	"Me MePhosphonate CH3-P"
13	1	9	0.3170	0.1542	-0.5047	-0.8534	#785(54)	"GLY Zwitterion HN"
14	1	10	0.0740	1.6337	1.3572	0.9551	#780(46)	"GLY Zwitterion HA"
15	1	10	0.0740	1.6386	1.4692	-0.8220	#780(46)	"GLY Zwitterion HA"
16	1	9	0.3170	0.1543	-0.6101	0.7258	#785(54)	"GLY Zwitterion HN"
#one end of the molecule is modeled as a glycine tzwitterion, the other end as a methyl phosphonate;
#at the junction between the two, the charge of the glycine N atom is adjusted by +0.317
#(instead of a H atom with charge +0.317 as in glycine, it is connected to the phosphonate C atom)
#and the charge of the phosphonate C atom is adjusted by +0.09
#(instead of a H atom with charge +0.08 as in phosphonate it is connected to the gycine N atom).

Bonds						

1	1	1	2	#52-64
2	1	1	3	#52-64
3	1	1	4	#52-64
4	2	1	8	#13-64
5	3	10	5	#3-52
6	3	10	6	#3-52
7	4	7	8	#13-53
8	4	7	9	#13-53
9	5	7	13	#53-54
10	6	8	11	#13-46
11	6	8	12	#13-46
12	7	9	10	#3-13
13	6	9	14	#13-46
14	6	9	15	#13-46
15	5	7	16	#53-54

Angles				

1	1	2	1	3	#52-64-52
2	1	2	1	4	#52-64-52
3	2	2	1	8	#13-64-52
4	1	3	1	4	#52-64-52
5	2	3	1	8	#13-64-52
6	2	4	1	8	#13-64-52
7	3	8	7	9	#13-53-13
8	4	8	7	13	#13-53-54
9	4	8	7	16	#13-53-54
10	4	9	7	13	#13-53-54
11	4	9	7	16	#13-53-54
12	5	13	7	16	#54-53-54
13	6	7	8	1	#53-13-64
14	7	11	8	1	#46-13-64
15	7	12	8	1	#46-13-64
16	8	11	8	7	#46-13-53
17	8	12	8	7	#46-13-53
18	9	11	8	12	#46-13-46
19	10	7	9	10	#3-13-53
20	8	7	9	14	#46-13-53
21	8	7	9	15	#46-13-53
22	11	10	9	14	#3-13-46
23	11	10	9	15	#3-13-46
24	9	14	9	15	#46-13-46
25	12	5	10	6	#52-3-52
26	13	9	10	6	#13-3-52
27	13	9	10	5	#13-3-52

Dihedrals

1	1	2	1	8	7	#53-13-64-52
2	2	2	1	8	11	#46-13-64-52
3	2	2	1	8	12	#46-13-64-52
4	1	3	1	8	7	#53-13-64-52
5	2	3	1	8	11	#46-13-64-52
6	2	3	1	8	12	#46-13-64-52
7	1	4	1	8	7	#53-13-64-52
8	2	4	1	8	11	#46-13-64-52
9	2	4	1	8	12	#46-13-64-52
10	3	1	8	7	9	#64-13-53-13
11	4	11	8	7	9	#46-13-53-13
12	4	12	8	7	9	#46-13-53-13
13	5	1	8	7	13	#64-13-53-54
14	6	11	8	7	13	#46-13-53-54
15	6	12	8	7	13	#46-13-53-54
16	5	1	8	7	16	#64-13-53-54
17	6	11	8	7	16	#46-13-53-54
18	6	12	8	7	16	#46-13-53-54
19	7	10	9	7	8	#3-13-53-13
20	4	14	9	7	8	#46-13-53-13
21	4	15	9	7	8	#46-13-53-13
22	8	10	9	7	13	#3-13-53-54
23	6	14	9	7	13	#46-13-53-54
24	6	15	9	7	13	#46-13-53-54
25	8	10	9	7	16	#3-13-53-54
26	6	14	9	7	16	#46-13-53-54
27	6	15	9	7	16	#46-13-53-54
28	9	5	10	9	7	#52-3-13-53
29	9	6	10	9	7	#52-3-13-53
30	10	5	10	9	14	#52-3-13-46
31	10	5	10	9	15	#52-3-13-46
32	10	6	10	9	14	#52-3-13-46
33	10	6	10	9	15	#52-3-13-46
34	11	9	5	10	6	#0-0-3-52

Bond Coeffs				

1	22.7657	1.4800	#52-64
2	9.1930	1.8430	#13-64
3	28.4463	1.2500	#3-52
4	15.9143	1.4710	#13-53
5	18.8197	1.0100	#53-54
6	14.7435	1.0900	#13-46
7	13.7462	1.5220	#3-13

Angle Coeffs				

1	6.0709	119.90	#52-64-52
2	1.9513	109.50	#13-64-52
3	2.1682	113.00	#13-53-13
4	1.5177	109.50	#13-53-54
5	1.5177	109.50	#54-53-54
6	1.8646	109.50	#53-13-64 (doesn't exist in OPLS; approximated as 13-13-64)
7	1.7779	109.50	#46-13-64
8	1.5177	109.50	#46-13-53
9	1.4310	107.80	#46-13-46
10	3.4691	111.20	#3-13-53
11	1.5177	109.50	#3-13-46
12	3.4691	126.00	#52-3-52
13	3.0354	117.00	#13-3-52

Dihedral Coeffs

1	0.0000	0.0000	0.0000	0.0000	#53-13-64-52 (doesn't exist in OPLS; approximated as 48-13-64-52; supported by Faria et al. Mol. Simul. (2019))
2	0.0000	0.0000	0.0108	0.0000	#46-13-64-52	
3	0.0180	-0.0055	0.0301	0.0000	#64-13-53-13 (doesn't exist in OPLS; parameterized by Faria et al. Mol. Simul. (2019))
4	0.0000	0.0000	0.0131	0.0000	#46-13-53-13	
5	0.2816	-0.0286	-0.0033	-0.0024	#64-13-53-54 (doesn't exist in OPLS; parameterized by Faria et al. Mol. Simul. (2019))
6	0.0000	0.0000	0.0130	0.0000	#46-13-53-54	
7	0.0624	-0.0054	0.0114	0.0000	#3-13-53-13 (doesn't exist in OPLS; parameterized by Faria et al. Mol. Simul. (2019))	
8	0.0000	0.0000	0.0150	0.0000	#3-13-53-54 (doesn't exist in OPLS; parameterized by Faria et al. Mol. Simul. (2019))	
9	0.0000	0.0356	0.0000	0.0000	#52-3-13-53 (doesn't exist in OPLS; approximated as 52-3-13-44; supported by Faria et al. Mol. Simul. (2019))
10	0.0000	0.00000	0.0000	0.0000	#52-3-13-46	
11	0.0000	0.9106	0.0000	0.0000	#0-0-3-52	
