LAMMPS DMP data file #updated by Jennie, summer 2021		

24 atoms		
24 bonds		
38 angles
50 dihedrals		

7 atom types	
7 bond types		
9 angle types
13 dihedral types #2 improper	

-6.0 12.0 xlo xhi		
-6.0 12.0 ylo yhi		
-6.0 12.0 zlo zhi		

Masses		

1 12.011	#CDMP					
2 1.008		#HDMP					
3 12.011	#C2DMP
4 15.999	#ODMP					
5 15.999	#O2DMP
6 12.011	#C3DMP
7 1.008		#H2DMP

Atoms						

1	1	1	-0.115	0.0537063189      2.7442285758     -0.0084583336 	#90(48)
2	1	1	-0.115	-0.9124185273      1.7344029673     -0.0217910236 	#90(48)
3	1	1	-0.115	-0.5156253357      0.4109722990     -0.0078343501 	#90(48)
4	1	1	-0.115	0.8416183629      0.1095596860      0.0265616652 	#90(48)	
5	1	2	0.115	-0.2947639308      3.7779677274     -0.0345745631 	#91(49)
6	1	2	0.115	-1.9706436361      1.9824386419     -0.0484439046 	#91(49)
7	1	2	0.115	-1.2459660426     -0.3941713045     -0.0254257294 	#91(49)
8	1	2	0.115	1.1145231268     -0.9470835483      0.0252313808 	#91(49)
9	1	1	-0.115	1.4439366665      2.4596398933      0.0360149547 	#90(48)
10	1	1	-0.115	1.8516941769      1.1058724352      0.0544693382 	#90(48)
11	1	3	0.625	2.2960831763      3.6864614095     -0.0078089422 	#412(3)
12	1	3	0.625	3.2167762740      0.4864144076      0.0832977227 	#412(3)
13	1	4	-0.43	1.9524336291      4.7135523635     -0.5798351106 	#407(4)
14	1	4	-0.43	3.3625952503     -0.7260383553      0.2362836077 	#407(4) 
15	1	5	-0.33	3.4215087225      3.5645648030      0.7214900106 	#408(20)	
16	1	5	-0.33	4.2416894926      1.3256086213     -0.1029560183 	#408(20) 	
17	1	6	0.16	4.6036358361      3.9947551510      0.0322382063 	#409(13)
18	1	6	0.16	5.5552521820      0.7494992680     -0.0225387669 	#409(13)
19	1	7	0.03	4.7211626384      5.0785886603     -0.0146186077 	#410(46)
20	1	7	0.03	4.6247904511      3.5720358016     -0.9808965274 	#410(46)
21	1	7	0.03	5.4499522070      3.5758890028      0.5859023525 	#410(46)
22	1	7	0.03	5.5756162391     -0.3179715299     -0.2598225070 	#410(46)
23	1	7	0.03	5.9637754611      0.9151493135      0.9798277803 	#410(46)
24	1	7	0.03	6.1896865951      1.2678629300     -0.7460147615 	#410(46)

Bonds						

1	1	1	2	#48-48
2	1	1	9	#48-48
3	1	2	3	#48-48
4	1	3	4	#48-48
5	1	4	10	#48-48
6	1	9	10	#48-48
7	2	1	5	#48-49
8	2	2	6	#48-49
9	2	3	7	#48-49
10	2	4	8	#48-49
11	3	9	11	#3-48
12	3	10	12	#3-48
13	4	11	13	#3-4
14	4	12	14	#3-4
15	5	11	15	#3-20
16	5	12	16	#3-20
17	6	15	17	#13-20
18	6	16	18	#13-20
19	7	17	19	#13-46
20	7	17	20	#13-46
21	7	17	21	#13-46
22	7	18	22	#13-46
23	7	18	23	#13-46
24	7	18	24	#13-46

Angles				

1	1	1	2	3	#48-48-48
2	1	2	3	4	#48-48-48
3	1	3	4	10	#48-48-48
4	1	4	10	9	#48-48-48
5	1	10	9	1	#48-48-48
6	1	9	1	2	#48-48-48
7	2	5	1	2	#48-48-49
8	2	1	2	6	#48-48-49
9	2	6	2	3	#48-48-49
10	2	2	3	7	#48-48-49
11	2	7	3	4	#48-48-49
12	2	3	4	8	#48-48-49
13	2	8	4	10	#48-48-49
14	2	9	1	5	#48-48-49
15	3	1	9	11	#3-48-48
16	3	10	9	11	#3-48-48
17	3	4	10	12	#3-48-48
18	3	9	10	12	#3-48-48
19	4	9	11	13	#4-3-48
20	4	10	12	14	#4-3-48
21	5	9	11	15	#20-3-48
22	5	10	12	16	#20-3-48
23	6	13	11	15	#4-3-20
24	6	14	12	16	#4-3-20
25	7	11	15	17	#3-20-13
26	7	12	16	18	#3-20-13
27	8	15	17	19	#20-13-46
28	8	15	17	20	#20-13-46
29	8	15	17	21	#20-13-46
30	8	16	18	22	#20-13-46
31	8	16	18	23	#20-13-46
32	8	16	18	24	#20-13-46
33	9	19	17	20	#46-13-46
34	9	19	17	21	#46-13-46
35	9	20	17	21	#46-13-46
36	9	22	18	23	#46-13-46
37	9	22	18	24	#46-13-46
38	9	23	18	24	#46-13-46

Dihedrals

1	1	5	1	2	6	#46-48-48-46
2	1	6	2	3	7
3	1	7	3	4	8
4	2	3	2	1	5	#46-48-48-48
5	2	10	9	1	5
6	2	4	3	2	6
7	2	9	1	2	6
8	2	10	4	3	7
9	2	1	2	3	7
10	2	9	10	4	8
11	2	2	3	4	8
12	3	1	2	3	4	#48-48-48-48
13	3	2	3	4	10
14	3	3	4	10	9
15	3	4	10	9	1
16	3	10	9	1	2
17	3	9	1	2	3
18	4	2	1	9	11	#3-48-48-48
19	4	3	4	10	12	
20	4	4	10	9	11
21	4	1	9	10	12
22	5	5	1	9	11	#3-48-48-49
23	5	8	4	10	12
24	6	11	9	10	12	#3-48-48-3
25	7	13	11	9	1	#4-3-48-48
26	7	13	11	9	10
27	7	14	12	10	4
28	7	14	12	10	9
29	8	15	11	9	1	#20-3-48-48
30	8	15	11	9	10
31	8	16	12	10	4
32	8	16	12	10	9
33	9	9	11	15	17	#48-3-20-13
34	9	10	12	16	18
35	10	13	11	15	17	#4-3-20-13
36	10	14	12	16	18
37	11	19	17	15	11	#46-13-20-3
38	11	20	17	15	11
39	11	21	17	15	11
40	11	22	18	16	12
41	11	23	18	16	12
42	11	24	18	16	12
43	12	5	2	1	9	#X-X-48-X improper
44	12	1	3	2	6	#X-X-48-X improper
45	12	2	4	3	7	#X-X-48-X improper
46	12	3	8	4	10	#X-X-48-X improper
47	12	1	10	9	11	#X-X-48-X improper
48	12	4	9	10	12	#X-X-48-X improper
49	13	9	15	11	13	#X-X-3-4 improper
50	13	10	16	12	14	#X-X-3-4 improper	


Bond Coeffs				

1	20.34	1.4
2	15.91	1.08
3	17.35	1.49		
4	24.72	1.229
5	9.28	1.327
6	13.88	1.41
7	14.74	1.09

Angle Coeffs				

1	3.68	120.00		
2	1.52	120.00
3	3.68	120.00
4	3.47	120.00
5	3.51	111.40
6	3.60	123.40
7	3.60	116.90
8	1.52	109.50
9	1.43	107.80

Dihedral Coeffs

1	0.0	0.314	0.0	0.0	#49-48-48-49
2	0.0	0.314	0.0	0.0	#49-48-48-48
3	0.0	0.314	0.0	0.0	#48-48-48-48
4	0.0	0.314	0.0	0.0	#3-48-48-48 estimated as X-48-48-48
5	0.0	0.314	0.0	0.0	#3-48-48-49 estimated as X-48-48-49
6	0.0	0.314	0.0	0.0	#3-48-48-3 estimated as X-48-48-X	
7	0.0	0.091	0.0	0.0	#4-3-48-48 
8	0.0	0.091	0.0	0.0	#20-3-48-48
9	0.173	0.217	0.0	0.0	#48-3-20-13
10	0.0	0.222	0.0	0.0	#4-3-20-13
11	0.0	0.0	0.0086	0.0	#46-13-20-3
12	0	0.2168	0	0	#X-X-48-X improper	
13	0	0.9106	0	0	#X-X-3-4 improper
