LAMMPS Dicamba data file #created by Daniela Martinez, June 2021; checked by Ian	

18	atoms
18	bonds
28	angles
40	dihedrals	

11	atom types
8	bond types
10	angle types
15	dihedral types

-10.0 10.0 xlo xhi		
-10.0 10.0 ylo yhi		
-10.0 10.0 zlo zhi		

Masses		

1 1.008		#HDicamba, bonded to aromatic C
2 12.011	#CDicamba, bonded to atom type 1
3 35.45 	#ClDicamba, bonded to aromatic C
4 12.011	#CDicamba, bonded to atom type 3
5 12.011 	#CDicamba, bonded to OCH3
6 15.999 	#ODicamba, oxygen in carboxylate
7 12.011	#CDicamba, carbon in carboxylate
8 15.999 	#ODicamba, bonded to C in aromatic group
9 1.008		#HDicamba, bonded to C in CH3
10 12.011	#CDicamba, bonded to H3 and ethyl
11	12.011	#CDicamba, carbon bonded to carboxylate

Atoms	#atom index, molecule index, atom type, partial charge, xyz coordinate

1	1	1	0.1150	-2.81014208	5.867415029	3.1317198	#OPLS atom type 91(49)
2	1	1	0.1150	-2.871672457	5.174154758	0.792495482	#OPLS atom type 91(49)
3	1	2	-0.1150	-2.422468742	4.89299529	2.860952039	#OPLS atom type 90(48)
4	1	2	-0.1150	-2.453791893	4.501167639	1.531075692	#OPLS atom type 90(48)
5	1	3	-0.1800	-1.947033984	4.671964774	5.491676	#OPLS atom type 206(21)
6	1	4	0.1800	-1.911424478	4.04462787	3.842851813	#OPLS atom type 205(48)
7	1	4	0.1800	-1.965050545	3.254667683	1.146134581	#OPLS atom type 205(48)
8	1	3	-0.1800	-2.123208514	2.854803837	-0.563580197 #OPLS atom type 206(21)
9	1	11	-0.1000	-1.404740692	2.761073056	3.491423037	#OPLS atom type 842(48)
10	1	5	0.0850	-1.422789678	2.371020435	2.119057682	#OPLS atom type 141(48)
11	1	6	-0.8000	-0.821751154	2.142441653	5.711925428	#OPLS atom type 214(52)
12	1	7	0.7000	-0.849274733	1.828454398	4.533923799	#OPLS atom type 213(3)
13	1	8	-0.2850	-0.937893253	1.142457771	1.789650249	#OPLS atom type 121(20)
14	1	6	-0.8000	-0.365516457	0.616786569	4.19759086	#OPLS atom type 214(52)
15	1	9	0.0300	0.69231729	0.248285834	0.98136562	#OPLS atom type 127(46)
16	1	10	0.1100	-0.225682968	0.783305774	0.662742074	#OPLS atom type 123(13)
17	1	9	0.0300	0.111806373	1.662957304	0.078502894	#OPLS atom type 127(46)
18	1	9	0.0300	-0.835051216	0.099154768	0.036839641	#OPLS atom type 127(46)

Bonds	#Bond Index, Bond Type, Atom 1, Atom 2					

1	1	1	3	#H-C bond (OPLS bond type 48-49)	
2	1	2	4	#H-C bond (OPLS bond type 48-49)
3	2	3	4	#C=C bond (OPLS bond type 48-48)
4	2	3	6	#C-C bond (OPLS bond type 48-48)
5	2	4	7	#C-C bond (OPLS bond type 48-48)
6	3	5	6	#C-Cl bond (OPLS bond type 21-48)
7	3	7	8	#C-Cl bond (OPLS bond type 21-48)
8	2	6	9	#C=C bond (OPLS bond type 48-48)
9	2	7	10	#C=C bond (OPLS bond type 48-48)
10	2	9	10	#C-C bond (OPLS bond type 48-48)
11	4	9	12	#C-C bond (OPLS bond type 3-48)
12	5	10	13	#C-O bond (OPLS bond type 20-48)
13	6	11	12	#C=O bond (OPLS bond type 3-52)
14	6	12	14	#C-O bond (OPLS bond type 3-52)
15	7	13	16	#O-C bond (OPLS bond type 13-20)
16	8	15	16	#C-H bond (OPLS bond type 13-46)
17	8	16	17	#C-H bond (OPLS bond type 13-46)
18	8	16	18	#C-H bond (OPLS bond type 13-46)

Angles	#Angle Index, Angle Type, Atom 1, Atom 2, Atom 3	

1	1	1	3	6	#H-C-C angle (OPLS angle type 49-48-48)
2	1	1	3	4	#H-C=C angle (OPLS angle type 49-48-48)
3	2	4	3	6	#C=C-C angle (OPLS angle type 48-48-48)
4	1	2	4	3	#H-C=C angle (OPLS angle type 49-48-48)
5	1	2	4	7	#H-C-C angle (OPLS angle type 49-48-48)
6	2	3	4	7	#C=C-C angle (OPLS angle type 48-48-48)
7	3	4	7	8	#C-C-Cl angle (OPLS angle type 48-48-21)
8	3	8	7	10	#Cl-C=C angle (OPLS angle type 48-48-21)
9	2	4	7	10	#C-C=C angle (OPLS angle type 48-48-48)
10	2	3	6	9	#C-C=C angle (OPLS angle type 48-48-48)
11	3	3	6	5	#C-C-Cl angle (OPLS angle type 48-48-21)
12	3	5	6	9	#Cl-C=C angle (OPLS angle type 48-48-21)
13	2	6	9	10	#C=C-C angle (OPLS angle type 48-48-48)
14	4	6	9	12	#C=C-C angle (OPLS angle type 48-48-3)
15	4	10	9	12	#C-C-C angle (OPLS angle type 48-48-3)
16	5	7	10	13	#C=C-O angle (OPLS angle type 48-48-20)
17	2	7	10	9	#C=C-C angle (OPLS angle type 48-48-48)
18	5	9	10	13	#C-C-O angle (OPLS angle type 48-48-20)
19	6	9	12	14	#C-C-O angle (OPLS angle type 48-3-52)
20	6	9	12	11	#C-C=O angle (OPLS angle type 48-3-52)
21	7	11	12	14	#O=C-O angle (OPLS angle type 52-3-52)
22	8	10	13	16	#C-O-C angle (OPLS angle type 48-20-13)
23	9	13	16	17	#O-C-H angle (OPLS angle type 20-13-46)
24	9	13	16	15	#O-C-H angle (OPLS angle type 20-13-46)
25	10	15	16	18	#H-C-H angle (OPLS angle type 46-13-46)
26	10	17	16	18	#H-C-H angle (OPLS angle type 46-13-46)
27	9	13	16	18	#O-C-H angle (OPLS angle type 20-13-46)
28	10	15	16	17	#H-C-H angle (OPLS angle type 46-13-46)

Dihedrals #Dihedral Index, Dihedral type, atoms 

1	1	1	3	4	2	#(OPLS dihedral type 49-48-48-49)
2	2	1	3	6	5	#(OPLS dihedral type 49-48-48-21)
3	3	1	3	4	7	#(OPLS dihedral type 49-48-48-48)
4	3	1	3	6	9	#(OPLS dihedral type 49-48-48-48)
5	4	3	4	7	8	#(OPLS dihedral type 48-48-48-21)
6	5	3	4	7	10	#(OPLS dihedral type 48-48-48-48)
7	5	3	6	9	10	#(OPLS dihedral type 48-48-48-48)
8	6	3	6	9	12	#(OPLS dihedral type 48-48-48-3)
9	4	4	3	6	5	#(OPLS dihedral type 48-48-48-21)
10	5	4	3	6	9	#(OPLS dihedral type 48-48-48-48)
11	5	4	7	10	9	#(OPLS dihedral type 48-48-48-48)
12	7	4	7	10	13	#(OPLS dihedral type 48-48-48-20)
13	3	2	4	3	6	#(OPLS dihedral type 49-48-48-48)
14	2	2	4	7	8	#(OPLS dihedral type 49-48-48-21)
15	3	2	4	7	10	#(OPLS dihedral type 49-48-48-48)
16	5	7	10	9	6	#(OPLS dihedral type 48-48-48-48)
17	5	7	4	3	6	#(OPLS dihedral type 48-48-48-48)
18	6	7	10	9	12	#(OPLS dihedral type 48-48-48-3)
19	8	7	10	13	16	#(OPLS dihedral type 48-48-20-13)
20	4	8	7	10	9	#(OPLS dihedral type 48-48-48-21)
21	9	8	7	10	13	#(OPLS dihedral type 21-48-48-20)
22	4	10	9	6	5	#(OPLS dihedral type 48-48-48-21)
23	10	10	9	12	11	#(OPLS dihedral type 48-48-3-52)
24	10	10	9	12	14	#(OPLS dihedral type 48-48-3-52)
25	11	10	13	16	15	#(OPLS dihedral type 48-20-13-46)
26	11	10	13	16	17	#(OPLS dihedral type 48-20-13-46)
27	11	10	13	16	18	#(OPLS dihedral type 48-20-13-46)
28	8	9	10	13	16	#(OPLS dihedral type 48-48-20-13)
29	7	6	9	10	13	#(OPLS dihedral type 48-48-48-20)
30	10	6	9	12	11	#(OPLS dihedral type 48-48-3-52)
31	10	6	9	12	14	#(OPLS dihedral type 48-48-3-52)
32	12	5	6	9	12	#(OPLS dihedral type 21-48-48-3)
33	13	13	10	9	12	#(OPLS dihedral type 20-48-48-3)
34	14	9	11	12	14	#improper dihedral (OPLS dihedral type 0-0-3-52)
35	15	1	4	3	6	#improper dihedral (OPLS dihedral type 0-0-48-0)
36	15	2	3	4	7	#improper dihedral (OPLS dihedral type 0-0-48-0)
37	15	4	8	7	10	#improper dihedral OPLS dihedral type 0-0-48-0)
38	15	7	9	10	13	#improper dihedral (OPLS dihedral type 0-0-48-0)
39	15	6	10	9	12	#improper dihedral (OPLS dihedral type 0-0-48-0)
40	15	3	9	6	5	#improper dihedral (OPLS dihedral type 0-0-48-0)

Bond Coeffs	#Bond Index, force constant, equilibrium length	

1	15.9143	1.0800	#force constant (in eV/A^2) and equilibrium length for bond type 1 (H-C)(OPLS 48-49)
2	20.3374	1.4000	#force constant (in eV/A^2) and equilibrium length for bond type 2 (C=C)(OPLS 48-48)	
3	13.0090	1.7250	#force constant (in eV/A^2) and equilibrium length for bond type 3 (C-Cl)(OPLS 21-48)
4	17.3453	1.4900	#force constant (in eV/A^2) and equilibrium length for bond type 4 (C-C)(OPLS 3-48)
5	19.5135	1.3640	#force constant (in eV/A^2) and equilibrium length for bond type 5 (C-O)(OPLS 20-48)
6	28.4463	1.2500	#force constant (in eV/A^2) and equilibrium length for bond type 6 (C=O)(OPLS 3-52)
7	13.8763	1.4100	#force constant (in eV/A^2) and equilibrium length for bond type 7 (O-C)(OPLS 13-20)
8	14.7435	1.0900	#force constant (in eV/A^2) and equilibrium length for bond type 8 (C-H)(OPLS 13-46)

Angle Coeffs	#Angle Index, Force Constant, Equilibrium angle			
 
1	1.51772	120.00	#H-C-C angle (OPLS angle type 49-48-48)
2	2.73189	120.00	#C=C-C angle (OPLS angle type 48-48-48)
3	3.25225	120.00	#C-C-Cl angle (OPLS angle type 48-48-21)
4	3.68588	120.00	#C=C-C angle (OPLS angle type 48-48-3)
5	3.03543	120.00	#C=C-O angle (OPLS angle type 48-48-20)
6	3.03543	117.00	#C-C-O angle (OPLS angle type 48-3-52)
7	3.46907	126.00	#O=C-O angle (OPLS angle type 52-3-52)
8	3.25225	111.00	#C-O-C angle (OPLS angle type 48-20-13)
9	1.51772	109.50	#O-C-H angle (OPLS angle type 20-13-46)
10	1.43099	107.80	#H-C-H angle (OPLS angle type 46-13-46)

Dihedral Coeffs	#dihedral index, k1, k2, k3, k4

1	0.0000	0.314384	0.0000	0.0000	#OPLS torsion coefficient for 49-48-48-49 
2	0.0000	0.314384	0.0000	0.0000	#OPLS torsion coefficient for 21-48-48-49 
3	0.0000	0.314384	0.0000	0.0000	#OPLS torsion coefficient for 48-48-48-49 	
4	0.0000	0.314384	0.0000	0.0000	#OPLS torsion coefficient for 21-48-48-48 
5	0.0000	0.314384	0.0000	0.0000	#OPLS torsion coefficient for 48-48-48-48 
6	0.0000	0.314384	0.0000	0.0000	#type 6 is 3-48-48-48, using OPLS coefficient for 0-48-48-48
7	0.0000	0.314384	0.0000	0.0000	#type 7 is 20-48-48-48, using OPLS coefficient for 0-48-48-48 
8	0.0000	0.130090	0.0000	0.0000	#OPLS torsion coefficient for 13-20-48-48
9	0.0000	0.314384	0.0000	0.0000	#type 9 is 21-48-48-20, using OPLS coefficient for 0-48-48-0
10	0.0000	0.0910630	0.0000	0.0000	#type 10 is 52-3-48-48, approximated as OPLS coefficient for 4-3-48-48
11	0.0000	0.0000	0.0329561	0.0000	#OPLS torsion coefficient for 46-13-20-48
12	0.0000	0.314384	0.0000	0.0000	#type 12 is 21-48-48-3, using OPLS coefficient for 0-48-48-0 
13	0.0000	0.314384	0.0000	0.0000	#type 13 is 20-48-48-3, using OPLS coefficient for 0-48-48-0
14	0.0000	0.910630	0.0000	0.0000	#OPLS torsion coefficient for improper dihedrals 0-0-3-52
15	0.0000	0.216817	0.0000	0.0000	#OPLS torsion coefficient for improer dihedrals 0-0-48-0
