LAMMPS Methylparaben data file #created by Raneem Mohamed, summer 2020, checked by Ian Bourg			

19 atoms		
19 bonds		
29 angles
42 dihedrals		

10  atom types	
9  bond types		
11 angle types
15 dihedral types		

-10.0  10.0 xlo xhi		
-10.0  10.0 ylo yhi		
-10.0  10.0 zlo zhi		

Masses		
					
1	1.008
2	12.011
3	15.999
4	12.011
5	15.999
6	12.011
7	12.011
8	1.008
9	15.999
10	1.008

Atoms
						
1	1	1	0.03	-4.2008	-1.828	-0.0019	#410(46)
2	1	1	0.03	-4.1933	-0.2939	-0.9017	#410(46)
3	1	1	0.03	-4.195	-0.2941	0.8982	#410(46)
4	1	2	0.16	-3.8313	-0.7992	-0.0014	#409(13)
5	1	3	-0.33	-2.4002	-0.8394	-0.0001	#408(20)
6	1	4	0.625	-1.7479	0.3633	0.0006	#412(3)
7	1	5	-0.43	-2.3204	1.4612	0.0001	#407(4)
8	1	6	-0.115	-0.3041	0.1886	0.0006	#90(48)
9	1	6	-0.115	0.5334	1.3039	0.0001	#90(48)
10	1	6	-0.115	1.9181	1.1361	-0.0003	#90(48)
11	1	7	0.15	2.4654	-0.147	0.0001	#108(48)
12	1	6	-0.115	1.6277	-1.2625	0.0007	#90(48)
13	1	6	-0.115	0.2429	-1.0946	0.0009	#90(48)
14	1	8	0.115	0.1278	2.3123	-0.0003	#91(49)
15	1	8	0.115	2.56	2.0131	-0.001	#91(49)
16	1	8	0.115	2.0486	-2.2643	0.0007	#91(49)
17	1	8	0.115	-0.3698	-1.9917	0.0013	#91(49)
18	1	9	-0.585	3.8165	-0.3105	-0.0014	#109(5)
19	1	10	0.435	4.2399	0.5652	-0.0019	#110(7)

Bonds						

1	1	1	4	#C-H bond	#46-13
2	1	2	4	#C-H bond	#46-13
3	1	3	4	#C-H bond	#46-13
4	2	4	5	#C-O bond	#13-20
5	3	5	6	#C-O bond	#20-3
6	4	6	7	#C=O bond	#3-4
7	5	6	8	#C-C bond	#3-48
8	6	8	9	#C-C bond	#48-48
9	6	9	10	#C-C bond	#48-48
10	6	10	11	#C-C bond	#48-48
11	6	11	12	#C-C bond	#48-48
12	6	12	13	#C-C bond	#48-48
13	6	8	13	#C-C bond	#48-48
14	7	9	14	#C-H bond	#48-49
15	7	10	15	#C-H bond	#48-49
16	8	11	18	#C-O bond	#48-5
17	7	12	16	#C-H bond	#48-49
18	7	13	17	#C-H bond	#48-49
19	9	18	19	#O-H bond	#5-7

Angles				

1	1	1	4	2	#46-13-46
2	1	1	4	3	#46-13-46
3	2	1	4	5	#46-13-20
4	1	2	4	3	#46-13-46
5	2	2	4	5	#46-13-20
6	2	3	4	5	#46-13-20
7	3	4	5	6	#13-20-3
8	4	5	6	7	#20-3-4
9	5	5	6	8	#20-3-48
10	6	7	6	8	#4-3-48
11	7	6	8	9	#3-48-48
12	9	9	8	13	#48-48-48
13	7	6	8	13	#3-48-48
14	8	8	9	14	#48-48-49
15	9	8	9	10	#48-48-48
16	8	10	9	14	#48-49-48
17	8	9	10	15	#48-49-48
18	9	9	10	11	#48-48-48
19	8	15	10	11	#48-49-48
20	10	10	11	18	#48-48-5
21	9	10	11	12	#48-48-48
22	10	12	11	18	#48-5-48
23	11	11	18	19	#48-5-7
24	8	11	12	16	#48-48-49
25	9	11	12	13	#48-48-48
26	8	13	12	16	#48-48-49
27	8	12	13	17	#48-48-49
28	9	8	13	12	#48-48-48
29	8	17	13	8	#48-48-49

Dihedrals

1	1	1	4	5	6	#46-13-20-3
2	1	2	4	5	6	#46-13-20-3
3	1	3	4	5	6	#46-13-20-3
4	2	4	5	6	7	#13-20-3-4
5	3	4	5	6	8	#13-20-3-48
6	4	5	6	8	13	#20-3-48-48
7	4	5	6	8	9	#20-3-48-48
8	5	7	6	8	9	#4-3-48-48
9	5	7	6	8	13	#4-3-48-48
10	6	6	8	9	14	#3-48-48-49
11	7	6	8	9	10	#3-48-48-48
12	6	6	8	13	17	#3-48-48-49
13	7	6	8	13	12	#3-48-48-48
14	9	8	9	10	15	#48-48-48-49
15	10	8	9	10	11	#48-48-48-48
16	9	8	13	12	16	#48-48-48-49
17	10	8	13	12	11	#48-48-48-48
18	10	9	10	11	12	#48-48-48-48
19	11	9	10	11	18	#48-48-48-5
20	9	9	8	13	17	#48-48-48-49
21	10	9	8	13	12	#48-48-48-48
22	12	10	11	18	19	#48-48-5-7
23	9	10	11	12	16	#48-48-48-49
24	10	10	11	12	13	#48-48-48-48
25	10	10	9	8	13	#48-48-48-48
26	8	15	10	11	18	#49-48-48-5
27	9	15	10	11	12	#49-48-48-48
28	9	14	9	10	11	#49-48-48-48
29	9	11	12	13	17	#48-48-48-49
30	12	12	11	18	19	#48-48-5-7
31	13	16	12	13	17	#49-48-48-49
32	8	16	12	11	18	#49-48-48-5
33	9	14	9	8	13	#49-48-48-48
34	13	15	10	9	14	#49-48-48-49
35	11	13	12	11	18	#48-48-48-5
36	14	6	9	8	13	#0-0-48-0 (Improper)
37	14	8	10	9	14	#0-0-48-0 (Improper)
38	14	9	11	10	15	#0-0-48-0 (Improper)
39	14	10	12	11	18	#0-0-48-0 (Improper)
40	14	11	13	12	16	#0-0-48-0 (Improper)
41	14	8	12	13	17	#0-0-48-0 (Improper)
42	15	5	8	6	7	#0-0-3-4 (Improper)

Bond Coeffs				

1	14.7435	1.0900	#13-46
2	13.8763	1.4100	#13-20
3	9.2798	1.3270	#20-3
4	24.7171	1.2290	#3-4
5	17.3453	1.4900	#3-48
6	20.3374	1.4000	#48-48
7	15.9143	1.0800	#48-49
8	19.5135	1.3640	#48-5
9	23.9799	0.9450	#5-7

Angle Coeffs				

1	1.4310	107.80	#46-13-46
2	1.5177	109.50	#46-13-20
3	3.5992	116.90	#13-20-3
4	3.5992	123.40	#20-3-4
5	3.5124	111.40	#20-3-48
6	3.4691	120.40	#4-3-48
7	3.6859	120.00	#3-48-48
8	1.5177	120.00	#48-48-49
9	2.7319	120.00	#48-48-48
10	3.0354	120.00	#48-48-5
11	1.5177	113.00	#48-5-7

Dihedral Coeffs

1	0.0000	0.0000	0.0086	0.0000	#46-13-20-3
2	0.0000	0.2222	0.0000	0.0000	#13-20-3-4
3	0.1735	0.2168	0.0000	0.0000	#13-20-3-48
4	0.0000	0.0911	0.0000	0.0000	#20-3-48-48
5	0.0000	0.0911	0.0000	0.0000	#4-3-48-48
6	0.0000	0.3144	0.0000	0.0000	#3-48-48-49 (missing, using 0-48-48-49)
7	0.0000	0.3144	0.0000	0.0000	#3-48-48-48 (missing, using 0-48-48-48)
8	0.0000	0.3144	0.0000	0.0000	#49-48-48-5 (missing, using 0-48-48-49)
9	0.0000	0.3144	0.0000	0.0000	#48-48-48-49
10	0.0000	0.3144	0.0000	0.0000	#48-48-48-48
11	0.0000	0.3144	0.0000	0.0000	#48-48-48-5 (missing, using 0-48-48-48)
12	0.0000	0.0729	0.0000	0.0000	#48-48-5-7
13	0.0000	0.3144	0.0000	0.0000	#49-48-48-49
14	0.0000	0.2168	0.0000	0.0000	#0-0-48-0 (Improper)
15	0.0000	0.9106	0.0000	0.0000	#0-0-3-4 (Improper)
