LAMMPS Acrolein data file	 #created by Amélie Lemay, July 2021; checked by Ian	

8 atoms		
7 bonds		
9 angles
11 dihedrals #8 proper, 3 improper		

6 atom types	
5 bond types		
7 angle types
8 dihedral types		

-20.0 20.0 xlo xhi		
-20.0 20.0 ylo yhi		
-20.0 20.0 zlo zhi		

Masses		

1	15.999
2	12.011
3	12.011
4	12.011
5	1.008
6	1.008				

Atoms						

1	1	1	-0.45	-1.7478	-0.1165	-0.0002	#220(4)	"Aldehyde/Acyl Halide C=O"
2	1	2	-0.115	0.5936	-0.4363	0.0002	#87(47)	"Alkene RH-C="
3	1	3	0.45	-0.6303	0.3856	0.0002	#219(3)	"Aldehyde/Acyl Halide C=O"
4	1	4	-0.23	1.7844	0.1672	-0.0002	#88(47)	"Alkene H2-C="
5	1	5	0.115	0.4972	-1.5148	0.0003	#89(46)	"Alkene H-C="
6	1	6	0	-0.4849	1.4788	0.0002	#221(46)	"Aldehyde/Formamide H-C=O"
7	1	5	0.115	2.6939	-0.4243	-0.0002	#89(46)	"Alkene H-C="
8	1	5	0.115	1.8872	1.2469	-0.0004	#89(46)	"Alkene H-C="

Bonds						

1	1	1	3	#3-4
2	2	2	3	#3-47
3	3	2	4	#47-47
4	4	2	5	#46-47
5	5	3	6	#3-46
6	4	4	7	#46-47
7	4	4	8	#46-47

Angles				

1	1	1	3	6	#4-3-46
2	2	1	3	2	#4-3-47
3	3	7	4	8	#46-47-46
4	4	3	2	5	#3-47-46
5	5	4	2	5	#46-47-47
6	5	2	4	7	#46-47-47
7	5	2	4	8	#46-47-47
8	6	3	2	4	#3-47-47
9	7	2	3	6	#47-3-46 does not exist, using #13-3-46

Dihedrals

1	1	1	3	2	5	#4-3-47-46
2	2	1	3	2	4	#4-3-47-47
3	3	3	2	4	7	#3-47-47-46
4	3	3	2	4	8	#3-47-47-46
5	4	5	2	4	7	#46-47-47-46
6	4	5	2	4	8	#46-47-47-46
7	5	4	2	3	6	#46-3-47-47 does not exist, using 0-3-47-13
8	6	5	2	3	6	#46-3-47-46 does not exist, using 4-3-47-46
9	7	4	5	2	3	#0-0-47-0 (improper)
10	8	6	2	3	1	#0-0-3-4 (improper)
11	7	2	7	4	8	#0-0-47-0 (improper)

Bond Coeffs				

1	24.7171	1.2290	#3-4
2	17.7790	1.4440	#3-47
3	23.8065	1.3400	#47-47
4	14.7435	1.0800	#46-47
5	14.7435	1.0900	#3-46		

Angle Coeffs				

1	1.5177	123.00	#4-3-46
2	3.4691	125.30	#4-3-47
3	1.5177	117.00	#46-47-46
4	1.5177	119.70	#3-47-46
5	1.5177	120.00	#46-47-47
6	3.6859	120.70	#3-47-47
7	1.5177	115.00	#47-3-46 does not exist, using #13-3-46

Dihedral Coeffs

1	0.0000	0.0000	0.0000	0.0000	#4-3-47-46
2	0.1084	0.2602	0.0000	0.0000	#4-3-47-47
3	0.0000	0.6071	0.0000	0.0000	#3-47-47-46
4	0.0000	0.6071	0.0000	0.0000	#46-47-47-46
5	0.0390	0.01005	-0.0219	0.0000	#46-3-47-47 does not exist, using 0-3-47-13
6	0.0000	0.0000	0.0000	0.0000	#46-3-47-46 does not exist, using 4-3-47-46
7	0.0000	1.3009	0.0000	0.0000	#0-0-47-0 (improper)
8	0.0000	0.9106	0.0000	0.0000	#0-0-3-4 (improper)

