LAMMPS DNOC data file
# Models DNOC without the hydrogen atom on its hydroxyl group, for use at pH 7 (pKa = 4.31)

19 atoms		
19 bonds		
30 angles
44 dihedrals #38 proper, 6 improper
		
9 atom types	
7 bond types		
9 angle types
11 dihedral types #10 proper, 1 improper
		
-12.0  12.0 xlo xhi		
-12.0  12.0 ylo yhi		
-12.0  12.0 zlo zhi		

Masses		
					
1	1.008	#85(46)
2	12.011	#93(13)
3	12.011	#90(48)
4	12.011	#108(48)
5	12.011	#709(48)
6	15.999	#109(5)
7	14.007	#708(102)
8	15.999	#702(103)
9	1.008	#91(49)

Atoms
						
1	1	4	0.1	-3.375694429	2.776515246	0.0139833976	#108(48), charge adjusted
2	1	5	0.09	-2.172774847	3.554337235	-0.020951731	#709(48)
3	1	3	-0.115	-0.891228346	2.951103478	-0.0307706988	#90(48)
4	1	5	0.09	-0.7719773928	1.564749935	-0.0097372954	#709(48)
5	1	3	-0.115	-1.906026041	0.7643917879	0.0218238733	#90(48)
6	1	3	-0.115	-3.182585545	1.356110403	0.0448449628	#90(48)
7	1	2	-0.065	-4.375699125	0.4168387741	0.048147586	#93(13)
8	1	6	-1.1	-4.555560301	3.261853787	0.0261615746	#109(5), charge adjusted
9	1	8	-0.37	-3.188013471	5.7153649	-0.2592944139	#702(103)
10	1	8	-0.37	-1.056320379	5.601995727	0.1469013567	#702(103)
11	1	8	-0.37	1.547528435	1.688128371	-0.0366747935	#702(103)
12	1	8	-0.37	0.6206565232	-0.2961946467	-0.0171108184	#702(103)
13	1	7	0.65	-2.1640801	5.055811443	-0.0365538889	#708(102)
14	1	7	0.65	0.5562364466	0.94417982	-0.0219324103	#708(102)
15	1	1	0.06	-4.089169753	-0.5815024472	0.3973620454	#85(46)
16	1	1	0.06	-5.162592658	0.7642747885	0.7252529523	#85(46)
17	1	1	0.06	-4.777368854	0.3226217674	-0.9659077551	#85(46)
18	1	9	0.115	-1.82447186	-0.3198728889	0.0307282938	#91(49)
19	1	9	0.115	0.0046604114	3.566871677	-0.0562722371	#91(49)

Bonds						

1	1	1	6	#48-48
2	1	1	2	#48-48
3	1	2	3	#48-48
4	1	3	4	#48-48
5	1	4	5	#48-48
6	1	5	6	#48-48
7	2	6	7	#13-48
8	3	9	13	#102-103
9	3	10	13	#102-103
10	4	2	13	#48-102
11	4	4	14	#48-102
12	3	11	14	#102-103
13	3	12	14	#102-103
14	5	1	8	#5-48
15	6	7	15	#13-46
16	6	7	16	#13-46
17	6	7	17	#13-46
18	7	5	18	#48-49
19	7	3	19	#48-49

Angles		
		
1	1	15	7	16	#46-13-46
2	1	15	7	17	#46-13-46
3	1	16	7	17	#46-13-46
4	2	6	7	15	#46-13-48
5	2	6	7	16	#46-13-48
6	2	6	7	17	#46-13-48
7	3	1	6	5	#48-48-48
8	3	1	2	3	#48-48-48
9	3	2	1	6	#48-48-48
10	3	2	3	4	#48-48-48
11	3	3	4	5	#48-48-48
12	3	4	5	6	#48-48-48
13	4	6	1	8	#5-48-48
14	4	2	1	8	#5-48-48
15	5	1	6	7	#13-48-48
16	5	5	6	7	#13-48-48
17	6	2	3	19	#48-48-49
18	6	4	3	19	#48-48-49
19	6	4	5	18	#48-48-49
20	6	6	5	18	#48-48-49
21	7	1	2	13	#48-48-102
22	7	3	2	13	#48-48-102
23	7	3	4	14	#48-48-102
24	7	5	4	14	#48-48-102
25	8	2	13	9	#48-102-103
26	8	2	13	10	#48-102-103
27	8	4	14	11	#48-102-103
28	8	4	14	12	#48-102-103
29	9	9	13	10	#103-102-103
30	9	11	14	12	#103-102-103

Dihedrals

1	1	1	6	7	15	#0-13-48-48
2	1	1	6	7	16	#0-13-48-48
3	1	1	6	7	17	#0-13-48-48
4	1	5	6	7	15	#0-13-48-48
5	1	5	6	7	16	#0-13-48-48
6	1	5	6	7	17	#0-13-48-48
7	2	8	1	2	13	 #0-48-48-0
8	3	7	6	1	8	#0-48-48-13
9	4	5	6	1	8	#0-48-48-48
10	4	3	2	1	8	#0-48-48-48
11	4	6	1	2	13	#0-48-48-48
12	4	4	3	2	13	#0-48-48-48
13	4	2	3	4	14	#0-48-48-48
14	4	6	5	4	14	#0-48-48-48
15	5	13	2	3	19	#0-48-48-49
16	5	14	4	3	19	#0-48-48-49
17	5	14	4	5	18	#0-48-48-49
18	6	2	1	6	7	#13-48-48-48
19	6	4	5	6	7	#13-48-48-48
20	7	7	6	5	18	#13-48-48-49
21	8	1	6	5	4	#48-48-48-48
22	8	1	2	3	4	#48-48-48-48
23	8	2	1	6	5	#48-48-48-48
24	8	2	3	4	5	#48-48-48-48
25	8	3	2	1	6	#48-48-48-48
26	8	3	4	5	6	#48-48-48-48
27	9	1	6	5	18	#48-48-48-49
28	9	1	2	3	19	#48-48-48-49
29	9	3	4	5	18	#48-48-48-49
30	9	5	4	3	19	#48-48-48-49
31	10	1	2	13	9	#48-48-102-103
32	10	1	2	13	10	#48-48-102-103
33	10	3	2	13	9	#48-48-102-103
34	10	3	2	13	10	#48-48-102-103
35	10	3	4	14	11	#48-48-102-103
36	10	3	4	14	12	#48-48-102-103
37	10	5	4	14	11	#48-48-102-103
38	10	5	4	14	12	#48-48-102-103
39	11	1	5	6	7	#0-0-48-0 (improper)
40	11	1	3	2	13	#0-0-48-0 (improper)
41	11	2	6	1	8	#0-0-48-0 (improper)
42	11	2	4	3	19	#0-0-48-0 (improper)
43	11	3	5	4	14	#0-0-48-0 (improper)
44	11	4	6	5	18	#0-0-48-0 (improper)

Bond Coeffs				

1	20.33740139	1.4	#48-48
2	13.74617535	1.51	#13-48
3	23.84983106	1.225	#102-103
4	17.34533168	1.46	#48-102
5	19.51349814	1.364	#5-48
6	14.74353193	1.09	#13-46
7	15.91434181	1.08	#48-49

Angle Coeffs
				
1	1.430989863	107.8	#46-13-46
2	1.517716522	109.5	#46-13-48
3	2.731889739	120	#48-48-48
4	3.035433044	120	#5-48-48
5	3.035433044	120	#13-48-48
6	1.517716522	120	#48-48-49
7	3.685882981	120	#48-48-102
8	3.469066335	117.5	#48-102-103
9	3.469066335	125	#103-102-103

Dihedral Coeffs

1	0	0	0	0	#0-13-48-48
2	0	0.3143841367	0	0	 #0-48-48-0
3	0	0.3143841367	0	0	#0-48-48-13
4	0	0.3143841367	0	0	#0-48-48-48
5	0	0.3143841367	0	0	#0-48-48-49
6	0	0.3143841367	0	0	#13-48-48-48
7	0	0.3143841367	0	0	#13-48-48-49
8	0	0.3143841367	0	0	#48-48-48-48
9	0	0.3143841367	0	0	#48-48-48-49
10	0	0.04986782857	0	0	#48-48-102-103
11	0	0.216816646	0	0	#0-0-48-0 (improper)
