LAMMPS TCE data file		

6 atoms		
5 bonds		
6 angles
6 dihedrals		

5 atom types	
3 bond types		
3 angle types
3 dihedral types		

0.0 12.0 xlo xhi		
0.0 12.0 ylo yhi		
0.0 12.0 zlo zhi		

Masses		

1 12.011	#CTCE					
2 12.011	#C2TCE					
3 35.453	#ClTCE
4 35.453	#Cl2TCE
5 1.008		#HTCE					

Atoms						

1	1	1	0.12	-2.757429659	0.8666213282	0	#OPLS atom type 342(47)
2	1	2	0.005	-1.333635738	0.7840941468	0	#OPLS atom type 169(47)
3	1	3	-0.06	-3.592735235	2.365094121	0	#OPLS atom type 341(21)
4	1	3	-0.06	-3.663758356	-0.5955567156	0	#OPLS atom type 341(21)
5	1	4	-0.12	-0.2911595268	2.1370877	0	#OPLS atom type 168(21)
6	1	5	0.115	-0.8020507463	-0.1568479093	0	#OPLS atom type 89(46)

Bonds						

1	1	1	2	#C=C bond (OPLS bond type 47-47)
2	2	1	3	#Cl-C bond (OPLS bond type 21-47)
3	2	1	4	#Cl-C bond (OPLS bond type 21-47)
4	2	2	5	#Cl-C bond (OPLS bond type 21-47)
5	3	2	6	#H-C bond (OPLS bond type 46-47)

Angles				

1	1	3	1	4	#Cl-C-Cl angle (OPLS angle type 21-47-21 doesn't exist; using type 21-47-46 instead)
2	1	6	2	5	#Cl-C-H angle (OPLS angle type 21-47-46)
3	2	4	1	2	#Cl-C-C angle (OPLS angle type 21-47-47)
4	2	3	1	2	#Cl-C-C angle (OPLS angle type 21-47-47)
5	2	1	2	5	#Cl-C-C angle (OPLS angle type 21-47-47)
6	3	6	2	1	#H-C-C angle (OPLS angle type 46-47-47)

Dihedrals

1	1	3	1	2	5	#Cl-C=C-Cl dihedral (OPLS dihedral type 21-47-47-21)
2	1	4	1	2	5	#Cl-C=C-Cl dihedral (OPLS dihedral type 21-47-47-21)
3	2	3	1	2	6	#Cl-C=C-H dihedral (OPLS dihedral type 21-47-47-46)
4	2	4	1	2	6	#Cl-C=C-H dihedral (OPLS dihedral type 21-47-47-46)
5	3	3	4	1	2	#improper dihedral around atom 1 (OPLS improper type 0-0-47-0)
6	3	1	5	2	6	#improper dihedral around atom 2 (OPLS improper type 0-0-47-0)

Bond Coeffs				

1	23.8065	1.3400		#force constant (in eV/A^2) and equilibrium length for bond type 1 (C=C)
2	13.0090	1.7250		#force constant and equilibrium length for bond type 2 (Cl-C)
3	14.7435	1.0800		#force constant and equilibrium length for bond type 3 (H-C)		

Angle Coeffs				

1	2.6018	114.00		
2	3.2522	121.50
3	1.5177	120.00

Dihedral Coeffs

1	-0.0694	0.6071	0.0	0.0	
2	0.0	0.6071	0.0	0.0
3	0.0	1.3009	0.0	0.0

