LAMMPS Toluene data file	#created by Morgan Wiese, June 2021; checked by Ian							
							
15 atoms							
15 bonds							
24 angles							
36 dihedrals							
							
4 atom types							
4 bond types							
5 angle types							
7 dihedral types							
							
-10 10 xlo xhi				
-10 10 ylo yhi				
-10 10 zlo zhi				
							
Masses							
							
1	12.011						
2	1.008						
3	12.011						
4	1.008						
							
Atoms							
							
1	1	1	-0.115	-0.285	1.2079	0.0001	#90(48)
2	1	2	0.115	-0.8169	2.1557	-0.0017	#91(49)
3	1	1	-0.115	1.1099	1.208	-0.0001	#90(48)
4	1	2	0.115	1.6531	2.1484	-0.0007	#91(49)
5	1	1	-0.115	1.8072	0	-0.0001	#90(48)
6	1	2	0.115	2.8933	-0.0001	-0.0004	#91(49)
7	1	1	-0.115	1.1097	-1.208	0	#90(48)
8	1	2	0.115	1.6529	-2.1485	-0.0005	#91(49)
9	1	1	-0.115	-0.2852	-1.2079	0	#90(48)
10	1	2	0.115	-0.8172	-2.1556	-0.0018	#91(49)
11	1	1	-0.115	-0.9825	0	0.0001	#90(48)
12	1	3	-0.065	-2.4741	0.0001	-0.0002	#93(13)
13	1	4	0.06	-2.8694	0.8808	0.5175	#85(46)
14	1	4	0.06	-2.8495	-0.0004	-1.0283	#85(46)
15	1	4	0.06	-2.8694	-0.8801	0.5183	#85(46)
							
Bonds							
							
1	1	1	2	#48-49			
2	2	1	3	#48-48			
3	1	3	4	#48-49			
4	2	3	5	#48-48			
5	1	5	6	#48-49			
6	2	5	7	#48-48			
7	1	7	8	#48-49			
8	2	7	9	#48-48			
9	1	9	10	#48-49			
10	2	9	11	#48-48			
11	2	11	1	#48-48			
12	3	11	12	#13-48			
13	4	12	13	#13-46			
14	4	12	14	#13-46			
15	4	12	15	#13-46			
							
Angles							
							
1	1	2	1	3	#48-48-49		
2	1	1	3	4	#48-48-49		
3	1	4	3	5	#48-48-49		
4	1	3	5	6	#48-48-49		
5	1	6	5	7	#48-48-49		
6	1	5	7	8	#48-48-49		
7	1	8	7	9	#48-48-49		
8	1	7	9	10	#48-48-49		
9	1	10	9	11	#48-48-49		
10	2	9	11	12	#13-48-48		
11	2	1	11	12	#13-48-48		
12	1	2	1	11	#48-48-49		
13	3	11	12	13	#46-13-48		
14	3	11	12	14	#46-13-48		
15	3	11	12	15	#46-13-48		
16	5	13	12	14	#46-13-46		
17	5	13	12	15	#46-13-46		
18	5	14	12	15	#46-13-46		
19	4	1	3	5	#48-48-48		
20	4	3	5	7	#48-48-48		
21	4	5	7	9	#48-48-48		
22	4	7	9	11	#48-48-48		
23	4	9	11	1	#48-48-48		
24	4	11	1	3	#48-48-48		
							
Dihedrals							
							
1	1	2	1	3	4	#49-48-48-49	
2	2	2	1	3	5	#48-48-48-49	
3	2	2	1	11	9	#48-48-48-49	
4	3	2	1	11	12	#13-48-48-49	
5	2	1	3	5	6	#48-48-48-49	
6	4	1	3	5	7	#48-48-48-48	
7	4	1	11	9	7	#48-48-48-48	
8	2	1	11	9	10	#48-48-48-49	
9	5	1	11	12	13	#46-13-48-48	
10	5	1	11	12	14	#46-13-48-48	
11	5	1	11	12	15	#46-13-48-48	
12	2	3	5	7	8	#48-48-48-49	
13	4	3	5	7	9	#48-48-48-48	
14	4	3	1	11	9	#48-48-48-48	
15	6	3	1	11	12	#13-48-48-48	
16	2	4	3	1	11	#48-48-48-49	
17	1	4	3	5	6	#49-48-48-49	
18	2	4	3	5	7	#48-48-48-49	
19	4	5	3	1	11	#48-48-48-48	
20	2	5	7	9	10	#48-48-48-49	
21	4	5	7	9	11	#48-48-48-48	
22	1	6	5	7	8	#49-48-48-49	
23	2	6	5	7	9	#48-48-48-49	
24	6	7	9	11	12	#13-48-48-48	
25	1	8	7	9	10	#49-48-48-49	
26	2	8	7	9	11	#48-48-48-49	
27	5	9	11	12	13	#46-13-48-48	
28	5	9	11	12	14	#46-13-48-48	
29	5	9	11	12	15	#46-13-48-48	
30	3	10	9	11	12	#13-48-48-49	
31	7	1	5	3	4	#0-0-48-0 (improper)	
32	7	3	7	5	6	#0-0-48-0 (improper)	
33	7	5	9	7	8	#0-0-48-0 (improper)	
34	7	7	11	9	10	#0-0-48-0 (improper)	
35	7	9	1	11	12	#0-0-48-0 (improper)	
36	7	11	3	1	2	#0-0-48-0 (improper)	
							
Bond Coeffs							
							
1	15.9143	1.0800	#48-49				
2	20.3374	1.4000	#48-48				
3	13.7462	1.5100	#13-48				
4	14.7435	1.0900	#13-46				
							
Angle Coeffs							
							
1	1.5177	120.00	#48-48-49				
2	3.0354	120.00	#13-48-48				
3	1.5177	109.50	#46-13-48				
4	2.7319	120.00	#48-48-48
5	1.4310	107.80	#46-13-46			
							
Dihedral Coeffs							
							
1	0	0.3144	0	0	#49-48-48-49		
2	0	0.3144	0	0	#48-48-48-49		
3	0	0.3144	0	0	#13-48-48-49		
4	0	0.3144	0	0	#48-48-48-48		
5	0	0	0	0	#46-13-48-48		
6	0	0.3144	0	0	#13-48-48-48		
7	0	0.2168	0	0	#0-0-48-0		