LAMMPS Chrysene data file	 #created by Philip Maruri, summer 2020, checked by Ian Bourg		

30 atoms
33 bonds
54 angles
102 dihedrals

3 atom types
2 bond types
2 angle types
4 dihedral types

-12.0  12.0 xlo xhi		
-12.0  12.0 ylo yhi		
-12.0  12.0 zlo zhi		

Masses		

1	12.011
2 	12.011
3 	1.008

Atoms						

1	1	1	0.0000	-0.4349	0.5647	0.0000	#92(48)
2	1	1	0.0000	0.4349	-0.5648	0.0000	#92(48)
3	1	1	0.0000	-1.8710	0.3905	-0.0001	#92(48)
4	1	1	0.0000	1.8710	-0.3906	0.0000	#92(48)
5	1	1	0.0000	-2.4092	-0.9180	0.0000	#92(48)
6	1	1	0.0000	2.4092	0.9179	0.0000	#92(48)
7	1	2	-0.1150	0.1697	1.8389	0.0001	#90(48)
8	1	2	-0.1150	-0.1697	-1.8389	0.0001	#90(48)
9	1	2	-0.1150	1.5528	2.0138	0.0001	#90(48)
10	1	2	-0.1150	-1.5528	-2.0138	0.0000	#90(48)
11	1	2	-0.1150	-2.8151	1.4526	-0.0002	#90(48)
12	1	2	-0.1150	2.8151	-1.4527	-0.0001	#90(48)
13	1	2	-0.1150	-3.7992	-1.1306	-0.0001	#90(48)
14	1	2	-0.1150	3.7992	1.1306	-0.0001	#90(48)
15	1	2	-0.1150	-4.1968	1.2329	-0.0003	#90(48)
16	1	2	-0.1150	4.1968	-1.2329	-0.0002	#90(48)
17	1	2	-0.1150	-4.6895	-0.0616	-0.0003	#90(48)
18	1	2	-0.1150	4.6895	0.0616	-0.0002	#90(48)
19	1	3	0.1150	-0.4294	2.7447	0.0001	#91(49)
20	1	3	0.1150	0.4294	-2.7447	0.0001	#91(49)
21	1	3	0.1150	1.9485	3.0274	0.0001	#91(49)
22	1	3	0.1150	-1.9485	-3.0274	0.0001	#91(49)
23	1	3	0.1150	-2.4895	2.4886	-0.0002	#91(49)
24	1	3	0.1150	2.4895	-2.4886	-0.0002	#91(49)
25	1	3	0.1150	-4.2014	-2.1418	-0.0001	#91(49)
26	1	3	0.1150	4.2014	2.1418	-0.0001	#91(49)
27	1	3	0.1150	-4.8805	2.0777	-0.0004	#91(49)
28	1	3	0.1150	4.8805	-2.0777	-0.0003	#91(49)
29	1	3	0.1150	-5.7608	-0.2416	-0.0003	#91(49)
30	1	3	0.1150	5.7608	0.2416	-0.0003	#91(49)

Bonds						

1	1	1	2	#48-48
2	1	1	3	#48-48
3	1	1	7	#48-48
4	1	2	4	#48-48
5	1	2	8	#48-48
6	1	3	5	#48-48
7	1	3	11	#48-48
8	1	4	6	#48-48
9	1	4	12	#48-48
10	1	5	10	#48-48
11	1	5	13	#48-48
12	1	6	9	#48-48
13	1	6	14	#48-49
14	1	7	9	#48-48
15	2	7	19	#48-49
16	1	8	10	#48-48
17	2	8	20	#48-49
18	2	9	21	#48-49
19	2	10	22	#48-49
20	1	11	15	#48-48
21	2	11	23	#48-49
22	1	12	16	#48-48
23	2	12	24	#48-49
24	1	13	17	#48-48
25	2	13	25	#48-49
26	1	14	18	#48-48
27	2	14	26	#48-49
28	1	15	17	#48-48
29	2	15	27	#48-49
30	1	16	18	#48-48
31	2	16	28	#48-49
32	2	17	29	#48-49
33	2	18	30	#48-49

Angles				

1	1	2	1	3	#48-48-48
2	1	2	1	7	#48-48-48
3	1	3	1	7	#48-48-48
4	1	1	2	4	#48-48-48
5	1	1	2	8	#48-48-48
6	1	4	2	8	#48-48-48
7	1	1	3	5	#48-48-48
8	1	1	3	11	#48-48-48
9	1	5	3	11	#48-48-48
10	1	2	4	6	#48-48-48
11	1	2	4	12	#48-48-48
12	1	6	4	12	#48-48-48
13	1	3	5	10	#48-48-48
14	1	3	5	13	#48-48-48
15	1	10	5	13	#48-48-48
16	1	4	6	9	#48-48-48
17	1	4	6	14	#48-48-48
18	1	9	6	14	#48-48-48
19	1	1	7	9	#48-48-48
20	2	1	7	19	#48-48-49
21	2	9	7	19	#48-48-49
22	1	2	8	10	#48-48-48
23	2	2	8	20	#48-48-49
24	2	10	8	20	#48-48-49
25	1	6	9	7	#48-48-48
26	2	6	9	21	#48-48-49
27	2	7	9	21	#48-48-49
28	1	5	10	8	#48-48-48
29	2	5	10	22	#48-48-49
30	2	8	10	22	#48-48-49
31	1	3	11	15	#48-48-48
32	2	3	11	23	#48-48-49
33	2	15	11	23	#48-48-49
34	1	4	12	16	#48-48-48
35	2	4	12	24	#48-48-49
36	2	16	12	24	#48-48-49
37	1	5	13	17	#48-48-48
38	2	5	13	25	#48-48-49
39	2	17	13	25	#48-48-49
40	1	6	14	18	#48-48-48
41	2	6	14	26	#48-48-49
42	2	18	14	26	#48-48-49
43	1	11	15	17	#48-48-48
44	2	11	15	27	#48-48-49
45	2	17	15	27	#48-48-49
46	1	12	16	18	#48-48-48
47	2	12	16	28	#48-48-49
48	2	18	16	28	#48-48-49
49	1	13	17	15	#48-48-48
50	2	13	17	29	#48-48-49
51	2	15	17	29	#48-48-49
52	1	14	18	16	#48-48-48
53	2	14	18	30	#48-48-49
54	2	16	18	30	#48-48-49

Dihedrals

1	1	3	1	2	4	#48-48-48-48
2	1	3	1	2	8	#48-48-48-48
3	1	7	1	2	4	#48-48-48-48
4	1	7	1	2	8	#48-48-48-48
5	1	2	1	3	5	#48-48-48-48
6	1	2	1	3	11	#48-48-48-48
7	1	7	1	3	5	#48-48-48-48
8	1	7	1	3	11	#48-48-48-48
9	1	2	1	7	9	#48-48-48-48
10	2	2	1	7	19	#48-48-48-49
11	1	3	1	7	9	#48-48-48-48
12	2	3	1	7	19	#48-48-48-49
13	1	1	2	4	6	#48-48-48-48
14	1	1	2	4	12	#48-48-48-48
15	1	8	2	4	6	#48-48-48-48
16	1	8	2	4	12	#48-48-48-48
17	1	1	2	8	10	#48-48-48-48
18	2	1	2	8	20	#48-48-48-49
19	1	4	2	8	10	#48-48-48-48
20	2	4	2	8	20	#48-48-48-49
21	1	1	3	5	10	#48-48-48-48
22	1	1	3	5	13	#48-48-48-48
23	1	11	3	5	10	#48-48-48-48
24	1	11	3	5	13	#48-48-48-48
25	1	1	3	11	15	#48-48-48-48
26	2	1	3	11	23	#48-48-48-49
27	1	5	3	11	15	#48-48-48-48
28	2	5	3	11	23	#48-48-48-49
29	1	2	4	6	9	#48-48-48-48
30	1	2	4	6	14	#48-48-48-48
31	1	12	4	6	9	#48-48-48-48
32	1	12	4	6	14	#48-48-48-48
33	1	2	4	12	16	#48-48-48-48
34	2	2	4	12	24	#48-48-48-49
35	1	6	4	12	16	#48-48-48-48
36	2	6	4	12	24	#48-48-48-49
37	1	3	5	10	8	#48-48-48-48
38	2	3	5	10	22	#48-48-48-49
39	1	13	5	10	8	#48-48-48-48
40	2	13	5	10	22	#48-48-48-49
41	1	3	5	13	17	#48-48-48-48
42	2	3	5	13	25	#48-48-48-49
43	1	10	5	13	17	#48-48-48-48
44	2	10	5	13	25	#48-48-48-49
45	1	4	6	9	7	#48-48-48-48
46	2	4	6	9	21	#48-48-48-49
47	1	14	6	9	7	#48-48-48-48
48	2	14	6	9	21	#48-48-48-49
49	1	4	6	14	18	#48-48-48-48
50	2	4	6	14	26	#48-48-48-49
51	1	9	6	14	18	#48-48-48-48
52	2	9	6	14	26	#48-48-48-49
53	1	1	7	9	6	#48-48-48-48
54	2	1	7	9	21	#48-48-48-49
55	2	6	9	7	19	#48-48-48-49
56	3	21	9	7	19	#49-48-48-49
57	1	2	8	10	5	#48-48-48-48
58	2	2	8	10	22	#48-48-48-49
59	2	5	10	8	20	#48-48-48-49
60	3	20	8	10	22	#49-48-48-49
61	1	3	11	15	17	#48-48-48-48
62	2	3	11	15	27	#48-48-48-49
63	2	17	15	11	23	#48-48-48-49
64	3	23	11	15	27	#49-48-48-49
65	1	4	12	16	18	#48-48-48-48
66	2	4	12	16	28	#48-48-48-49
67	2	18	16	12	24	#48-48-48-49
68	3	24	12	16	28	#49-48-48-49
69	1	5	13	17	15	#48-48-48-48
70	2	5	13	17	29	#48-48-48-49
71	2	15	17	13	25	#48-48-48-49
72	3	25	13	17	29	#49-48-48-49
73	1	6	14	18	16	#48-48-48-48
74	2	6	14	18	30	#48-48-48-49
75	2	16	18	14	26	#48-48-48-49
76	3	26	14	18	30	#49-48-48-49
77	1	11	15	17	13	#48-48-48-48
78	2	11	15	17	29	#48-48-48-49
79	2	13	17	15	27	#48-48-48-49
80	3	27	15	17	29	#49-48-48-49
81	1	12	16	18	14	#48-48-48-48
82	2	12	16	18	30	#48-48-48-49
83	2	14	18	16	28	#48-48-48-49
84	3	28	16	18	30	#49-48-48-49
85	4	2	3	1	7	#0-0-48-0 (Improper)
86	4	1	4	2	8	#0-0-48-0 (Improper)
87	4	1	11	3	5	#0-0-48-0 (Improper)
88	4	2	6	4	12	#0-0-48-0 (Improper)
89	4	3	10	5	13	#0-0-48-0 (Improper)
90	4	4	9	6	14	#0-0-48-0 (Improper)
91	4	1	9	7	19	#0-0-48-0 (Improper)
92	4	2	10	8	20	#0-0-48-0 (Improper)
93	4	6	7	9	21	#0-0-48-0 (Improper)
94	4	5	8	10	22	#0-0-48-0 (Improper)
95	4	3	15	11	23	#0-0-48-0 (Improper)
96	4	4	16	12	24	#0-0-48-0 (Improper)
97	4	5	17	13	25	#0-0-48-0 (Improper)
98	4	6	18	14	26	#0-0-48-0 (Improper)
99	4	11	17	15	27	#0-0-48-0 (Improper)
100	4	12	18	16	28	#0-0-48-0 (Improper)
101	4	13	15	17	29	#0-0-48-0 (Improper)
102	4	14	16	18	30	#0-0-48-0 (Improper)

Bond Coeffs				

1	20.3374	1.4000	#48-48
2	15.9143	1.0800	#48-49

Angle Coeffs				

1	2.7319	120.00	#48-48-48
2	1.5177	120.00	#48-48-49

Dihedral Coeffs

1	0.0000	0.3144	0.0000	0.0000	#48-48-48-48
2	0.0000	0.3144	0.0000	0.0000	#48-48-48-49
3	0.0000	0.3144	0.0000	0.0000	#49-48-48-49
4	0.0000	0.2168	0.0000	0.0000	#0-0-48-0 (Improper)
