LAMMPS Naproxen data file #created by Amélie Lemay, July 2021; checked by Jennie				

30 atoms		
31 bonds		
52 angles
81 dihedrals	#70 proper, 11 improper	

12 atom types	
9 bond types		
15 angle types
20 dihedral types	#18 proper, 2 improper		

-20.0 20.0 xlo xhi		
-20.0 20.0 ylo yhi		
-20.0 20.0 zlo zhi		

Masses		

1	15.999
2	15.999
3	12.011
4	12.011
5	12.011
6	12.011
7	12.011
8	12.011
9	12.011
10	1.008
11	1.008
12	1.008					

Atoms						

1	1	1	-0.285	-4.696397106	-0.2400073904	-0.1835727302	#121(20)	"Anisole -OCH3"
2	1	2	-0.8	5.15479956	0.3363789674	-0.7450542953	#214(52)	"Carboxylate COO-"
3	1	2	-0.8	3.284552959	1.616782305	-0.959445936	#214(52)	"Carboxylate COO-"
4	1	3	-0.045	3.192828468	-0.4013964591	0.3468852013	#217(13), charge adjusted	"Carboxylate R2CH-COO-"
5	1	4	-0.115	1.693503444	-0.5458523915	0.153714665	#90(48)	"Aromatic C"
6	1	5	0	-0.578543452	0.3758574799	0.2303571836	#92(48)	"Naphthalene Fusion C"
7	1	5	0	-1.10985767	-0.8846761819	-0.109546931	#92(48)	"Naphthalene Fusion C"
8	1	4	-0.115	0.8124926875	0.5272032881	0.359109876	#90(48)	"Aromatic C"
9	1	4	-0.115	1.150153287	-1.790204369	-0.1913211803	#90(48)	"Aromatic C"
10	1	4	-0.115	-0.2321153572	-1.958893977	-0.3209458864	#90(48)	"Aromatic C"
11	1	6	-0.18	3.535944529	-0.0353204056	1.79265112	#80(13)	"Alkane CH3-"
12	1	4	-0.115	-1.452021748	1.454681926	0.4313462336	#90(48)	"Aromatic C"
13	1	4	-0.115	-2.503022799	-1.030253705	-0.2324300055	#90(48)	"Aromatic C"
14	1	7	0.085	-3.367135798	0.0504204712	-0.028706824	#141(48)	"Anisole C-OCH3"
15	1	8	0.7	3.931171211	0.6135084933	-0.5475947565	#213(3)	"Carboxylate COO-"
16	1	4	-0.115	-2.835743867	1.294657982	0.3044765563	#90(48)	"Aromatic C"
17	1	9	0.11	-5.605048716	0.8442282591	-0.0448667203	#123(13)	"Methyl Ether CH3OR"
18	1	10	0.06	3.652072979	-1.378995913	0.141970749	#85(46)	"Alkane H-C"
19	1	11	0.115	1.230623008	1.504137441	0.6009859571	#91(49)	"Aromatic H-C"
20	1	11	0.115	1.806639302	-2.640221003	-0.3609839075	#91(49)	"Aromatic H-C"
21	1	11	0.115	-0.6158930284	-2.938591279	-0.5917084055	#91(49)	"Aromatic H-C"
22	1	10	0.06	4.619197877	-0.0528363122	1.957749857	#85(46)	"Alkane H-C"
23	1	10	0.06	3.182986767	0.9682263483	2.05600078	#85(46)	"Alkane H-C"
24	1	10	0.06	3.082224898	-0.7443421975	2.494430282	#85(46)	"Alkane H-C"
25	1	11	0.115	-1.050106484	2.433835169	0.6839892645	#91(49)	"Aromatic H-C"
26	1	11	0.115	-2.925025877	-1.99689069	-0.495689443	#91(49)	"Aromatic H-C"
27	1	11	0.115	-3.461529723	2.163801055	0.4707287538	#91(49)	"Aromatic H-C"
28	1	12	0.03	-6.613696496	0.4598746592	-0.2249160159	#127(46)	"Alkyl Ether H-COR"
29	1	12	0.03	-5.40943357	1.623822891	-0.7887255908	#127(46)	"Alkyl Ether H-COR"
30	1	12	0.03	-5.581418284	1.251067539	0.9715111492	#127(46)	"Alkyl Ether H-COR"

Bonds						

1	1	1	14	#20-48
2	2	1	17	#13-20
3	3	2	15	#3-52
4	3	3	15	#3-52
5	4	4	5	#13-48
6	5	4	11	#13-13
7	6	4	15	#3-13
8	7	4	18	#13-46
9	8	5	8	#48-48
10	8	5	9	#48-48
11	8	6	7	#48-48
12	8	6	8	#48-48
13	8	6	12	#48-48
14	8	7	10	#48-48
15	8	7	13	#48-48
16	9	8	19	#48-49
17	8	9	10	#48-48
18	9	9	20	#48-49
19	9	10	21	#48-49
20	7	11	22	#13-46
21	7	11	23	#13-46
22	7	11	24	#13-46
23	8	12	16	#48-48
24	9	12	25	#48-49
25	8	13	14	#48-48
26	9	13	26	#48-49
27	8	14	16	#48-48
28	9	16	27	#48-49
29	7	17	28	#13-46
30	7	17	29	#13-46
31	7	17	30	#13-46

Angles				

1	1	2	15	4	#13-3-52
2	1	3	15	4	#13-3-52
3	2	2	15	3	#52-3-52
4	3	11	4	15	#3-13-13
5	4	22	11	23	#46-13-46
6	4	22	11	24	#46-13-46
7	4	23	11	24	#46-13-46
8	4	28	17	29	#46-13-46
9	4	28	17	30	#46-13-46
10	4	29	17	30	#46-13-46
11	5	15	4	18	#3-13-46
12	6	1	17	28	#20-13-46
13	6	1	17	29	#20-13-46
14	6	1	17	30	#20-13-46
15	7	4	11	22	#13-13-46
16	7	4	11	23	#13-13-46
17	7	4	11	24	#13-13-46
18	7	11	4	18	#13-13-46
19	8	5	4	18	#46-13-48
20	9	5	4	15	#3-13-48
21	10	5	4	11	#13-13-48
22	11	14	1	17	#13-20-48
23	12	5	8	6	#48-48-48
24	12	7	10	9	#48-48-48
25	12	6	12	16	#48-48-48
26	12	5	9	10	#48-48-48
27	12	8	5	9	#48-48-48
28	12	6	7	10	#48-48-48
29	12	6	7	13	#48-48-48
30	12	7	6	8	#48-48-48
31	12	7	6	12	#48-48-48
32	12	7	13	14	#48-48-48
33	12	8	6	12	#48-48-48
34	12	10	7	13	#48-48-48
35	12	12	16	14	#48-48-48
36	12	13	14	16	#48-48-48
37	13	4	5	8	#13-48-48
38	13	4	5	9	#13-48-48
39	14	1	14	13	#20-48-48
40	14	1	14	16	#20-48-48
41	15	5	8	19	#48-48-49
42	15	5	9	20	#48-48-49
43	15	9	10	21	#48-48-49
44	15	10	9	20	#48-48-49
45	15	12	16	27	#48-48-49
46	15	16	12	25	#48-48-49
47	15	6	8	19	#48-48-49
48	15	6	12	25	#48-48-49
49	15	7	10	21	#48-48-49
50	15	7	13	26	#48-48-49
51	15	14	13	26	#48-48-49
52	15	14	16	27	#48-48-49

Dihedrals

1	1	2	15	4	11	#52-3-13-13
2	1	3	15	4	11	#52-3-13-13
3	2	2	15	4	18	#52-3-13-46
4	2	3	15	4	18	#52-3-13-46
5	3	15	4	11	22	#3-13-13-46
6	3	15	4	11	23	#3-13-13-46
7	3	15	4	11	24	#3-13-13-46
8	4	18	4	11	22	#46-13-13-46
9	4	18	4	11	23	#46-13-13-46
10	4	18	4	11	24	#46-13-13-46
11	5	5	4	11	22	#46-13-13-48
12	5	5	4	11	23	#46-13-13-48
13	5	5	4	11	24	#46-13-13-48
14	6	14	1	17	28	#46-13-20-48
15	6	14	1	17	29	#46-13-20-48
16	6	14	1	17	30	#46-13-20-48
17	7	8	5	4	15	#0-13-48-48
18	7	9	5	4	15	#0-13-48-48
19	8	8	5	4	11	#13-13-48-48
20	8	9	5	4	11	#13-13-48-48
21	9	8	5	4	18	#46-13-48-48
22	9	9	5	4	18	#46-13-48-48
23	10	13	14	1	17	#13-20-48-48
24	10	16	14	1	17	#13-20-48-48
25	11	1	14	13	7	#0-48-48-48
26	11	1	14	16	12	#0-48-48-48
27	12	1	14	13	26	#0-48-48-49
28	12	1	14	16	27	#0-48-48-49
29	13	4	5	8	6	#13-48-48-48
30	13	4	5	9	10	#13-48-48-48
31	14	4	5	8	19	#13-48-48-49
32	14	4	5	9	20	#13-48-48-49
33	15	5	8	6	7	#48-48-48-48
34	15	6	7	10	9	#48-48-48-48
35	15	7	6	12	16	#48-48-48-48
36	15	5	8	6	12	#48-48-48-48
37	15	9	10	7	13	#48-48-48-48
38	15	8	6	12	16	#48-48-48-48
39	15	5	9	10	7	#48-48-48-48
40	15	6	8	5	9	#48-48-48-48
41	15	6	7	13	14	#48-48-48-48
42	15	6	12	16	14	#48-48-48-48
43	15	7	13	14	16	#48-48-48-48
44	15	8	5	9	10	#48-48-48-48
45	15	8	6	7	10	#48-48-48-48
46	15	8	6	7	13	#48-48-48-48
47	15	10	7	6	12	#48-48-48-48
48	15	12	6	7	13	#48-48-48-48
49	15	10	7	13	14	#48-48-48-48
50	15	12	16	14	13	#48-48-48-48
51	16	5	9	10	21	#48-48-48-49
52	16	8	5	9	20	#48-48-48-49
53	16	9	5	8	19	#48-48-48-49
54	16	6	7	10	21	#48-48-48-49
55	16	6	7	13	26	#48-48-48-49
56	16	7	6	8	19	#48-48-48-49
57	16	7	6	12	25	#48-48-48-49
58	16	6	12	16	27	#48-48-48-49
59	16	7	10	9	20	#48-48-48-49
60	16	8	6	12	25	#48-48-48-49
61	16	10	7	13	26	#48-48-48-49
62	16	12	6	8	19	#48-48-48-49
63	16	13	7	10	21	#48-48-48-49
64	16	13	14	16	27	#48-48-48-49
65	16	16	14	13	26	#48-48-48-49
66	16	14	16	12	25	#48-48-48-49
67	17	20	9	10	21	#49-48-48-49
68	17	25	12	16	27	#49-48-48-49
69	18	2	15	4	5	#52-3-13-48 does not exist, using 4-3-13-48
70	18	3	15	4	5	#52-3-13-48 does not exist, using 4-3-13-48
71	19	2	4	15	3	#0-0-3-52 (improper)
72	20	1	13	14	16	#0-0-48-0 (improper)
73	20	4	8	5	9	#0-0-48-0 (improper)
74	20	5	6	8	19	#0-0-48-0 (improper)
75	20	9	7	10	21	#0-0-48-0 (improper)
76	20	16	6	12	25	#0-0-48-0 (improper)
77	20	5	10	9	20	#0-0-48-0 (improper)
78	20	6	10	7	13	#0-0-48-0 (improper)
79	20	7	8	6	12	#0-0-48-0 (improper)
80	20	7	14	13	26	#0-0-48-0 (improper)
81	20	12	14	16	27	#0-0-48-0 (improper)

Bond Coeffs				

1	19.51349814	1.364	#20-48
2	13.87626534	1.41	#13-20
3	28.44634395	1.25	#3-52
4	13.74617535	1.51	#13-48
5	11.62137222	1.529	#13-13
6	13.74617535	1.522	#3-13
7	14.74353193	1.09	#13-46
8	20.33740139	1.4	#48-48
9	15.91434181	1.08	#48-49

Angle Coeffs				

1	3.035433044	117	#13-3-52
2	3.469066335	126	#52-3-52
3	2.731889739	111.1	#3-13-13
4	1.430989863	107.8	#46-13-46
5	1.517716522	109.5	#3-13-46
6	1.517716522	109.5	#20-13-46
7	1.626124845	110.7	#13-13-46
8	1.517716522	109.5	#46-13-48
9	2.731889739	112	#3-13-48
10	2.731889739	114	#13-13-48
11	3.25224969	111	#13-20-48
12	2.731889739	120	#48-48-48
13	3.035433044	120	#13-48-48
14	3.035433044	120	#20-48-48
15	1.517716522	120	#48-48-49

Dihedral Coeffs

1	0	0.03555792994	0	0	#52-3-13-13
2	0	0	0	0	#52-3-13-46
3	0	0	-0.004336332919	0	#3-13-13-46
4	0	0	0.01300899876	0	#46-13-13-46
5	0	0	0.02003385809	0	#46-13-13-48
6	0	0	0.03295613019	0	#46-13-20-48
7	0	0	0	0	#0-13-48-48
8	0	0	0	0	#13-13-48-48
9	0	0	0	0	#46-13-48-48
10	0	0.1300899876	0	0	#13-20-48-48
11	0	0.3143841367	0	0	#0-48-48-48
12	0	0.3143841367	0	0	#0-48-48-49
13	0	0.3143841367	0	0	#13-48-48-48
14	0	0.3143841367	0	0	#13-48-48-49
15	0	0.3143841367	0	0	#48-48-48-48
16	0	0.3143841367	0	0	#48-48-48-49
17	0	0.3143841367	0	0	#49-48-48-49
18	0	0.02367637774	0	0	#4-3-13-48
19	0	0.9106299131	0	0	#0-0-3-52 (improper)
20	0	0.216816646	0	0	#0-0-48-0 (improper)