LAMMPS DEP data file #updated by Jennie summer 2021		

30 atoms		
30 bonds		
50 angles
68 dihedrals		

9 atom types	
8 bond types		
11 angle types
16 dihedral types #2 improper	

-6.0 12.0 xlo xhi		
-6.0 12.0 ylo yhi		
-6.0 12.0 zlo zhi		

Masses		

1 12.011	#CDMP					
2 1.008		#HDMP					
3 12.011	#C2DMP
4 15.999	#ODMP					
5 15.999	#O2DMP
6 12.011	#C3DMP
7 1.008		#H2DMP
8 12.011	#C4DMP
9 1.008		#H3DMP

Atoms						       

1	1	1	-0.115	-2.2376464304      2.9698723552     -0.2386351130	#90(48)
2	1	1	-0.115	-3.4236560234      2.2478423279     -0.0992613527 	#90(48)
3	1	1	-0.115	-3.3662533449      0.8822963509      0.1244227122	#90(48)
4	1	1	-0.115	-2.1235028747      0.2599373121      0.2480447993	#90(48)
5	1	1	-0.115	-0.9089307459      0.9811760888      0.1360811637	#90(48)
6	1	1	-0.115	-0.9672434325      2.3498792587     -0.1425304369	#90(48)
7	1	2	0.115	-2.3070963860      4.0417637284     -0.4288613615	#91(49)
8	1	2	0.115	-4.3841115085      2.7521957849     -0.1771683708	#91(49)
9	1	2	0.115	-4.2808019628      0.3003093063      0.2130058636	#91(49)
10	1	2	0.115	-2.1033949014     -0.8144393598      0.4363040762	#91(49)
11	1	3	0.625	0.1650934470      3.2653534244     -0.4101134278	#412(3)
12	1	3	0.625	0.2981560875      0.1592428352      0.3812928948	#412(3)
13	1	4	-0.43	0.0412939569      4.1631796768     -1.2349506920	#407(4)
14	1	4	-0.43	0.2490984380     -0.7755397457      1.1730462445	#407(4)
15	1	5	-0.33	1.2137343232      3.1099670297      0.4316502815	#408(20)
16	1	5	-0.33	1.3404217908      0.4421201792     -0.4339316731	#408(20)
17	1	6	0.19	2.1849293045      4.1755619680      0.3690191666	#409(13)
18	1	6	0.19	2.4130136043     -0.5212634137     -0.3753560382	#409(13)
19	1	7	0.03	2.1264407628      4.7259181918      1.3127841770	#410(46)	
20	1	7	0.03	1.9928118980      4.8886132415     -0.4402548784	#410(46)
21	1	7	0.03	2.4134263694     -1.0697433751     -1.3220416013	#410(46)
22	1	7	0.03	2.2930378535     -1.2529374196      0.4312289747	#410(46)
23	1	8	-0.18	3.5835935334      3.6257585280      0.1854441948	#80(13)	
24	1	8	-0.18	3.7466555024      0.1684805213     -0.1830505585	#80(13)
25	1	9	0.06	3.8613993943      2.9846826500      1.0256996782	#85(46)
26	1	9	0.06	4.3134934431      4.4384814514      0.1172381768	#85(46)
27	1	9	0.06	3.6458212235      3.0343786723     -0.7317083727	#85(46)
28	1	9	0.06	3.9624236007      0.8342827105     -1.0222328445	#85(46)
29	1	9	0.06	4.5555038310     -0.5649619141     -0.1088219619	#85(46)
30	1	9	0.06	3.7407428954      0.7638133246      0.7336815347	#85(46)

Bonds						

1	1	1	2
2	1	1	6
3	1	2	3
4	1	3	4
5	1	4	5
6	1	5	6
7	2	1	7
8	2	2	8
9	2	3	9
10	2	4	10
11	3	6	11
12	3	5	12
13	4	11	13	
14	4	12	14
15	5	11	15
16	5	12	16
17	6	15	17
18	6	16	18
19	7	17	19
20	7	17	20
21	7	18	21
22	7	18	22
23	7	23	25
24	7	23	26
25	7	23	27
26	7	24	28
27	7	24	29
28	7	24	30
29	8	17	23
30	8	18	24

Angles				

1	1	1	2	3
2	1	2	3	4
3	1	3	4	5
4	1	4	5	6
5	1	5	6	1
6	1	6	1	2
7	2	7	1	2
8	2	1	2	8
9	2	8	2	3
10	2	2	3	9
11	2	9	3	4
12	2	3	4	10	
13	2	10	4	5
14	2	6	1	7
15	3	1	6	11
16	3	5	6	11
17	3	4	5	12
18	3	6	5	12
19	4	6	11	13
20	4	5	12	14
21	5	6	11	15
22	5	5	12	16
23	6	13	11	15
24	6	14	12	16
25	7	11	15	17
26	7	12	16	18
27	8	15	17	19
28	8	15	17	20
29	8	16	18	21
30	8	16	18	22
31	9	15	17	23
32	9	16	18	24
33	10	19	17	20
34	10	21	18	22
35	10	25	23	26
36	10	25	23	27
37	10	26	23	27
38	10	28	24	29
39	10	28	24	30
40	10	29	24	30
41	11	19	17	23
42	11	20	17	23
43	11	21	18	24
44	11	22	18	24
45	11	17	23	25
46	11	17	23	26
47	11	17	23	27
48	11	18	24	28
49	11	18	24	29
50	11	18	24	30

Dihedrals

1	1	7	1	2	8
2	1	8	2	3	9
3	1	9	3	4	10
4	2	3	2	1	7
5	2	5	6	1	7
6	2	4	3	2	8
7	2	6	1	2	8
8	2	5	4	3	9
9	2	1	2	3	9
10	2	6	5	4	10
11	2	2	3	4	10
12	3	1	2	3	4
13	3	2	3	4	5
14	3	3	4	5	6
15	3	4	5	6	1
16	3	5	6	1	2
17	3	6	1	2	3
18	4	13	11	6	1
19	4	13	11	6	5
20	4	14	12	5	4
21	4	14	12	5	6
22	5	15	11	6	1
23	5	15	11	6	5
24	5	16	12	5	4
25	5	16	12	5	6
26	6	6	11	15	17
27	6	5	12	16	18
28	7	13	11	15	17
29	7	14	12	16	18
30	8	19	17	15	11
31	8	20	17	15	11
32	8	21	18	16	12
33	8	22	18	16	12
34	9	23	17	15	11
35	9	24	18	16	12
36	10	15	17	23	25
37	10	15	17	23	26
38	10	15	17	23	27
39	10	16	18	24	28
40	10	16	18	24	29
41	10	16	18	24	30
42	11	19	17	23	25
43	11	19	17	23	26
44	11	19	17	23	27
45	11	20	17	23	25
46	11	20	17	23	26
47	11	20	17	23	27
48	11	21	18	24	28
49	11	21	18	24	29
50	11	21	18	24	30
51	11	22	18	24	28
52	11	22	18	24	29
53	11	22	18	24	30
54	12	7	1	6	11
55	12	10	4	5	12
56	13	2	1	6	11
57	13	4	5	6	11
58	13	3	4	5	12
59	13	1	6	5	12
60	14	11	6	5	12
61	15	2	6	1	7
62	15	1	3	2	8
63	15	2	4	3	9
64	15	3	5	4	10
65	15	4	6	5	12
66	15	1	5	6	11
67	16	6	13	11	15
68	16	5	14	12	16

Bond Coeffs				

1	20.34	1.4	#48-48
2	15.91	1.08	#48-48
3	17.35	1.49	#3-48	
4	24.72	1.229	#3-4
5	9.28	1.327	#3-20
6	13.88	1.41	#13-20
7	14.74	1.09	#13-46
8	11.62	1.529	#13-13

Angle Coeffs				

1	3.68	120.00	#48-48-48		
2	1.52	120.00	#48-48-49
3	3.68	120.00	#3-48-48
4	3.47	120.00	#4-3-48
5	3.51	111.40	#20-3-48
6	3.60	123.40	#4-3-20
7	3.60	116.90	#3-20-13
8	1.52	109.50	#20-13-46	
9	2.17	109.50	#20-13-13
10	1.43	107.80	#46-13-46
11	1.63	110.70	#13-13-46

Dihedral Coeffs

1	0.0	0.314	0.0	0.0	#49-48-48-49	
2	0.0	0.314	0.0	0.0	#49-48-48-48
3	0.0	0.314	0.0	0.0	#48-48-48-48
4	0.0	0.091	0.0	0.0	#4-3-48-48
5	0.0	0.091	0.0	0.0	#20-3-48-48
6	0.173	0.217	0.0	0.0	#48-3-20-13
7	0.0	0.222	0.0	0.0	#4-3-20-13
8	0.0	0.0	0.0086	0.0	#46-13-20-3
9	-0.053	-0.0055	0.0183	0.0	#13-13-20-3
10	0.0	0.0	0.0203	0.0	#20-13-13-46
11	0.0	0.0	0.0130	0.0	#46-13-13-46
12	0.0	0.314	0.0	0.0	#3-48-48-49 estimated as X-48-48-49
13	0.0	0.314	0.0	0.0	#3-48-48-48 estimated as X-48-48-48
14	0.0	0.314	0.0	0.0	#3-48-48-3 estimated as X-48-48-X
15	0	0.2168	0	0	#X-X-48-X improper
16	0	0.9106	0	0	#X-X-3-4 improper
