LAMMPS 4 nonyphenol diethoxylate data file #created by Amélie Lemay, June 2021; checked by Ian Bourg

54 atoms		
54 bonds		
99 angles
140 dihedrals #134 proper, 6 improper

14 atom types	
9 bond types		
16 angle types	
26 dihedral types #25 proper, 1 improper

-20.0 20.0 xlo xhi		
-20.0 20.0 ylo yhi		
-20.0 20.0 zlo zhi		

Masses		

1 12.011
2 12.011
3 1.008
4 12.011
5 12.011
6 1.008
7 12.011
8 12.011
9 1.008
10 15.999
11 15.999
12 1.008
13 12.011
14 15.999			

Atoms						

1	1	12	0.418	-5.138697214	-1.526477945	1.374053239	#97(7)	"Alcohol -OH"
2	1	11	-0.683	-5.691968033	-1.382327585	2.16682342	#96(5)	"Alcohol -OH"
3	1	13	0.145	-4.824785821	-1.620281917	3.274151916	#99(13)	"Alcohol CH3OH & RCH2OH"
4	1	3	0.06	-4.627957007	-2.696638516	3.31335398	#85(46)	"Alkane H-C"
5	1	3	0.06	-5.340455022	-1.318174054	4.1895417	#85(46)	"Alkane H-C"
6	1	8	0.14	-3.527676599	-0.8368807494	3.089909127	#124(13)	"Ethyl Ether -CH2OR"
7	1	9	0.03	-2.87318502	-0.9994132887	3.951256513	#127(46)	"Alkyl Ether H-COR"
8	1	9	0.03	-3.742983388	0.2309871119	2.977692017	#127(46)	"Alkyl Ether H-COR"
9	1	10	-0.4	-2.904037307	-1.311903863	1.891885172	#122(20)	"Dialkyl Ether -O-"
10	1	8	0.14	-1.671743591	-0.6555447342	1.579680425	#124(13)	"Ethyl Ether -CH2OR"
11	1	9	0.03	-1.396390179	-0.9684170138	0.5664647959	#127(46)	"Alkyl Ether H-COR"
12	1	9	0.03	-1.828024397	0.4282841437	1.536357534	#127(46)	"Alkyl Ether H-COR"
13	1	8	0.14	-0.5477447136	-1.015799832	2.553217097	#124(13)	"Ethyl Ether -CH2OR"
14	1	9	0.03	-0.5815091477	-0.4018640632	3.461781949	#127(46)	"Alkyl Ether H-COR"
15	1	9	0.03	-0.688567394	-2.048823581	2.893114039	#127(46)	"Alkyl Ether H-COR"
16	1	14	-0.285	0.7232781478	-0.9785280754	1.906102962	#121(20)	"Anisole -OCH3"
17	1	7	0.085	1.527214705	0.1004959217	2.124993802	#141(48)	"Anisole C-OCH3"
18	1	5	-0.115	1.099806797	1.398132455	2.385018105	#90(48)	"Aromatic C"
19	1	6	0.115	0.0472101356	1.648648081	2.451264416	#91(49)	"Aromatic H-C"
20	1	5	-0.115	2.040522343	2.427520492	2.532944738	#90(48)	"Aromatic C"
21	1	6	0.115	1.6869149	3.439393915	2.723480038	#91(49)	"Aromatic H-C"
22	1	5	-0.115	2.892344995	-0.1555832486	2.00395443	#90(48)	"Aromatic C"
23	1	6	0.115	3.232498735	-1.165261781	1.786468198	#91(49)	"Aromatic H-C"
24	1	5	-0.115	3.830903693	0.8679274979	2.159799255	#90(48)	"Aromatic C"
25	1	6	0.115	4.88162068	0.6108496329	2.060547498	#91(49)	"Aromatic H-C"
26	1	5	-0.115	3.419639198	2.178785616	2.422798536	#90(48)	"Aromatic C"
27	1	4	-0.005	4.380222296	3.34336939	2.561758293	#94(13)	"Ethyl Benzene -CH2-"
28	1	3	0.06	4.162276496	4.05679193	1.756931882	#85(46)	"Alkane H-C"
29	1	3	0.06	4.163796133	3.846028981	3.513553742	#85(46)	"Alkane H-C"
30	1	2	-0.12	5.87515314	3.000803491	2.526591369	#81(13)	"Alkane -CH2-"
31	1	3	0.06	6.11050949	2.316879071	3.351807864	#85(46)	"Alkane H-C"
32	1	3	0.06	6.120038767	2.479521865	1.592716628	#85(46)	"Alkane H-C"
33	1	2	-0.12	6.758383139	4.248615821	2.627975143	#81(13)	"Alkane -CH2-"
34	1	3	0.06	6.445449906	4.858977032	3.483467167	#85(46)	"Alkane H-C"
35	1	3	0.06	6.633925854	4.861187919	1.727085312	#85(46)	"Alkane H-C"
36	1	2	-0.12	8.227743222	3.855077322	2.798117705	#81(13)	"Alkane -CH2-"
37	1	3	0.06	8.337302012	3.298085792	3.736867733	#85(46)	"Alkane H-C"
38	1	3	0.06	8.528681476	3.178488078	1.988494457	#85(46)	"Alkane H-C"
39	1	2	-0.12	9.160257704	5.069541787	2.806682158	#81(13)	"Alkane -CH2-"
40	1	3	0.06	8.760486223	5.845060985	3.470842041	#85(46)	"Alkane H-C"
41	1	3	0.06	9.204192446	5.496572719	1.798585617	#85(46)	"Alkane H-C"
42	1	2	-0.12	10.55871685	4.668341218	3.285659245	#81(13)	"Alkane -CH2-"
43	1	3	0.06	10.47854742	4.3115299	4.320445222	#85(46)	"Alkane H-C"
44	1	3	0.06	10.93547051	3.826539208	2.692255029	#85(46)	"Alkane H-C"
45	1	2	-0.12	11.56944767	5.816916013	3.257883006	#81(13)	"Alkane -CH2-"
46	1	3	0.06	11.13141584	6.717029912	3.705681846	#85(46)	"Alkane H-C"
47	1	3	0.06	12.42264465	5.533986663	3.887182374	#85(46)	"Alkane H-C"
48	1	2	-0.12	12.08001532	6.124169964	1.84957187	#81(13)	"Alkane -CH2-"
49	1	3	0.06	11.26215733	6.486112494	1.217639722	#85(46)	"Alkane H-C"
50	1	3	0.06	12.46836044	5.208997233	1.387404235	#85(46)	"Alkane H-C"
51	1	1	-0.18	13.18715071	7.167289996	1.877487994	#80(13)	"Alkane CH3-"
52	1	3	0.06	14.03320652	6.825195572	2.482693894	#85(46)	"Alkane H-C"
53	1	3	0.06	13.55317595	7.35931145	0.8640482871	#85(46)	"Alkane H-C"
54	1	3	0.06	12.82604899	8.112365578	2.294959265	#85(46)	"Alkane H-C"

Bonds						

1	7	18	20	#48-48
2	7	20	26	#48-48
3	7	26	24	#48-48
4	7	24	22	#48-48
5	7	22	17	#48-48
6	7	17	18	#48-48
7	6	16	17	#48-20
8	5	13	16	#13-20
9	4	13	10	#13-13
10	5	9	10	#13-20
11	5	6	9	#13-20
12	4	6	3	#13-13
13	2	2	3	#5-13
14	1	1	2	#5-7
15	9	26	27	#13-48
16	4	27	30	#13-13
17	4	30	33	#13-13
18	4	33	36	#13-13
19	4	36	39	#13-13
20	4	39	42	#13-13
21	4	42	45	#13-13
22	4	45	48	#13-13
23	4	48	51	#13-13
24	3	51	52	#13-46
25	3	51	53	#13-46
26	3	51	54	#13-46
27	3	48	49	#13-46
28	3	48	50	#13-46
29	3	45	46	#13-46
30	3	45	47	#13-46
31	3	42	43	#13-46
32	3	42	44	#13-46
33	3	39	40	#13-46
34	3	39	41	#13-46
35	3	36	37	#13-46
36	3	36	38	#13-46
37	3	33	34	#13-46
38	3	33	35	#13-46
39	3	30	31	#13-46
40	3	30	32	#13-46
41	3	27	28	#13-46
42	3	27	29	#13-46
43	8	20	21	#48-49
44	8	18	19	#48-49
45	8	22	23	#48-49
46	8	24	25	#48-49
47	3	13	14	#13-46
48	3	13	15	#13-46
49	3	10	11	#13-46
50	3	10	12	#13-46
51	3	6	7	#13-46
52	3	6	8	#13-46
53	3	3	4	#13-46
54	3	3	5	#13-46

Angles				

1	1	17	18	20	#48-48-48
2	2	19	18	20	#49-48-48
3	2	19	18	17	#49-48-48
4	1	18	20	26	#48-48-48
5	2	18	20	21	#49-48-48
6	2	21	20	26	#49-48-48
7	1	20	26	24	#48-48-48
8	3	20	26	27	#13-48-48
9	3	24	26	27	#13-48-48
10	1	22	24	26	#48-48-48
11	2	26	24	25	#49-48-48
12	2	25	24	22	#49-48-48
13	1	24	22	17	#48-48-48
14	2	23	22	24	#49-48-48
15	2	17	22	23	#49-48-48
16	1	22	17	18	#48-48-48
17	4	16	17	22	#20-48-48
18	4	16	17	18	#20-48-48
19	5	13	16	17	#13-20-48
20	6	10	13	16	#13-13-20
21	7	16	13	15	#20-13-46
22	7	16	13	14	#20-13-46
23	8	15	13	10	#46-13-13
24	8	14	13	10	#46-13-13
25	9	14	13	15	#46-13-46
26	6	13	10	9	#13-13-20
27	8	13	10	12	#46-13-13
28	8	13	10	11	#46-13-13
29	7	9	10	11	#20-13-46
30	7	9	10	12	#20-13-46
31	9	11	10	12	#46-13-46
32	10	10	9	6	#13-20-13
33	6	3	6	9	#13-13-20
34	7	7	6	9	#46-13-20
35	7	8	6	9	#46-13-20
36	8	3	6	7	#46-13-13
37	8	3	6	8	#46-13-13
38	9	7	6	8	#46-13-46
39	11	2	3	6	#5-13-13
40	8	4	3	6	#46-13-13
41	8	5	3	6	#46-13-13
42	12	2	3	4	#5-13-46
43	12	2	3	5	#5-13-46
44	9	4	3	5	#46-13-46
45	13	1	2	3	#7-5-13
46	14	26	27	30	#48-13-13
47	15	26	27	28	#48-13-46
48	15	26	27	29	#48-13-46
49	8	28	27	30	#46-13-13
50	8	29	27	30	#46-13-13
51	9	28	27	29	#46-13-46
52	16	27	30	33	#13-13-13
53	8	27	30	31	#46-13-13
54	8	27	30	32	#46-13-13
55	8	31	30	33	#46-13-13
56	8	32	30	33	#46-13-13
57	9	31	30	32	#46-13-46
58	16	30	33	36	#13-13-13
59	8	30	33	34	#46-13-13
60	8	30	33	35	#46-13-13
61	8	35	33	36	#46-13-13
62	8	34	33	36	#46-13-13
63	9	34	33	35	#46-13-46
64	16	33	36	39	#13-13-13
65	8	33	36	37	#46-13-13
66	8	33	36	38	#46-13-13
67	8	37	36	39	#46-13-13
68	8	38	36	39	#46-13-13
69	9	37	36	38	#46-13-46
70	16	36	39	42	#13-13-13
71	8	36	39	40	#46-13-13
72	8	36	39	41	#46-13-13
73	8	41	39	42	#46-13-13
74	8	40	39	42	#46-13-13
75	9	40	39	41	#46-13-46
76	16	39	42	45	#13-13-13
77	8	39	42	43	#46-13-13
78	8	39	42	44	#46-13-13
79	8	43	42	45	#46-13-13
80	8	44	42	45	#46-13-13
81	9	43	42	44	#46-13-46
82	16	42	45	48	#13-13-13
83	8	42	45	46	#46-13-13
84	8	42	45	47	#46-13-13
85	8	47	45	48	#46-13-13
86	8	46	45	48	#46-13-13
87	9	46	45	47	#46-13-46
88	16	45	48	51	#13-13-13
89	8	45	48	49	#46-13-13
90	8	45	48	50	#46-13-13
91	8	49	48	51	#46-13-13
92	8	50	48	51	#46-13-13
93	9	49	48	50	#46-13-46
94	8	48	51	52	#46-13-13
95	8	48	51	53	#46-13-13
96	8	48	51	54	#46-13-13
97	9	52	51	53	#46-13-46
98	9	53	51	54	#46-13-46
99	9	52	51	54	#46-13-46

Dihedrals

1	1	1	2	3	6	#7-5-13-13
2	2	1	2	3	4	#7-5-13-46
3	2	1	2	3	5	#7-5-13-46
4	3	26	27	30	33	#48-13-13-13
5	4	2	3	6	9	#5-13-13-20
6	5	2	3	6	7	#5-13-13-46
7	5	2	3	6	8	#5-13-13-46
8	6	27	30	33	36	#13-13-13-13
9	6	30	33	36	39	#13-13-13-13
10	6	33	36	39	42	#13-13-13-13
11	6	36	39	42	45	#13-13-13-13
12	6	39	42	45	48	#13-13-13-13
13	6	42	45	48	51	#13-13-13-13
14	7	27	30	33	34	#13-13-13-46
15	7	27	30	33	35	#13-13-13-46
16	7	30	33	36	37	#13-13-13-46
17	7	30	33	36	38	#13-13-13-46
18	7	33	36	39	40	#13-13-13-46
19	7	33	36	39	41	#13-13-13-46
20	7	31	30	33	36	#13-13-13-46
21	7	32	30	33	36	#13-13-13-46
22	7	36	39	42	43	#13-13-13-46
23	7	36	39	42	44	#13-13-13-46
24	7	34	33	36	39	#13-13-13-46
25	7	35	33	36	39	#13-13-13-46
26	7	39	42	45	46	#13-13-13-46
27	7	39	42	45	47	#13-13-13-46
28	7	37	36	39	42	#13-13-13-46
29	7	38	36	39	42	#13-13-13-46
30	7	42	45	48	49	#13-13-13-46
31	7	42	45	48	50	#13-13-13-46
32	7	40	39	42	45	#13-13-13-46
33	7	41	39	42	45	#13-13-13-46
34	7	43	42	45	48	#13-13-13-46
35	7	44	42	45	48	#13-13-13-46
36	7	28	27	30	33	#13-13-13-46
37	7	29	27	30	33	#13-13-13-46
38	7	45	48	51	52	#13-13-13-46
39	7	45	48	51	53	#13-13-13-46
40	7	45	48	51	54	#13-13-13-46
41	7	46	45	48	51	#13-13-13-46
42	7	47	45	48	51	#13-13-13-46
43	8	9	10	13	16	#20-13-13-20
44	9	9	10	13	14	#20-13-13-46
45	9	9	10	13	15	#20-13-13-46
46	9	4	3	6	9	#20-13-13-46
47	9	5	3	6	9	#20-13-13-46
48	9	11	10	13	16	#20-13-13-46
49	9	12	10	13	16	#20-13-13-46
50	10	4	3	6	7	#46-13-13-46
51	10	4	3	6	8	#46-13-13-46
52	10	5	3	6	7	#46-13-13-46
53	10	5	3	6	8	#46-13-13-46
54	10	11	10	13	14	#46-13-13-46
55	10	11	10	13	15	#46-13-13-46
56	10	12	10	13	14	#46-13-13-46
57	10	12	10	13	15	#46-13-13-46
58	10	28	27	30	31	#46-13-13-46
59	10	28	27	30	32	#46-13-13-46
60	10	29	27	30	31	#46-13-13-46
61	10	29	27	30	32	#46-13-13-46
62	10	31	30	33	34	#46-13-13-46
63	10	31	30	33	35	#46-13-13-46
64	10	32	30	33	34	#46-13-13-46
65	10	32	30	33	35	#46-13-13-46
66	10	34	33	36	37	#46-13-13-46
67	10	34	33	36	38	#46-13-13-46
68	10	35	33	36	37	#46-13-13-46
69	10	35	33	36	38	#46-13-13-46
70	10	37	36	39	40	#46-13-13-46
71	10	37	36	39	41	#46-13-13-46
72	10	38	36	39	40	#46-13-13-46
73	10	38	36	39	41	#46-13-13-46
74	10	40	39	42	43	#46-13-13-46
75	10	40	39	42	44	#46-13-13-46
76	10	41	39	42	43	#46-13-13-46
77	10	41	39	42	44	#46-13-13-46
78	10	43	42	45	46	#46-13-13-46
79	10	43	42	45	47	#46-13-13-46
80	10	44	42	45	46	#46-13-13-46
81	10	44	42	45	47	#46-13-13-46
82	10	46	45	48	49	#46-13-13-46
83	10	46	45	48	50	#46-13-13-46
84	10	47	45	48	49	#46-13-13-46
85	10	47	45	48	50	#46-13-13-46
86	10	49	48	51	52	#46-13-13-46
87	10	49	48	51	53	#46-13-13-46
88	10	49	48	51	54	#46-13-13-46
89	10	50	48	51	52	#46-13-13-46
90	10	50	48	51	53	#46-13-13-46
91	10	50	48	51	54	#46-13-13-46
92	11	26	27	30	31	#48-13-13-46
93	11	26	27	30	32	#48-13-13-46
94	12	3	6	9	10	#13-13-20-13
95	12	6	9	10	13	#13-13-20-13
96	13	7	6	9	10	#46-13-20-13
97	13	8	6	9	10	#46-13-20-13
98	13	6	9	10	11	#46-13-20-13
99	13	6	9	10	12	#46-13-20-13
100	14	14	13	16	17	#46-13-20-48
101	14	15	13	16	17	#46-13-20-48
102	15	20	26	27	30	#13-13-48-48
103	15	24	26	27	30	#13-13-48-48
104	16	20	26	27	28	#46-13-48-48
105	16	24	26	27	28	#46-13-48-48
106	16	20	26	27	29	#46-13-48-48
107	16	24	26	27	29	#46-13-48-48
108	17	13	16	17	22	#13-20-48-48
109	17	13	16	17	18	#13-20-48-48
110	18	16	17	22	24	#20-48-48-48
111	18	16	17	18	20	#20-48-48-48
112	19	16	17	22	23	#20-48-48-49
113	19	16	17	18	19	#20-48-48-49
114	20	18	20	26	27	#13-48-48-48
115	20	22	24	26	27	#13-48-48-48
116	21	21	20	26	27	#13-48-48-49
117	21	25	24	26	27	#13-48-48-49
118	22	17	22	24	26	#48-48-48-48
119	22	17	18	20	26	#48-48-48-48
120	22	18	20	26	24	#48-48-48-48
121	22	20	26	24	22	#48-48-48-48
122	22	18	17	22	24	#48-48-48-48
123	22	20	18	17	22	#48-48-48-48
124	23	17	22	24	25	#48-48-48-49
125	23	17	18	20	21	#48-48-48-49
126	23	18	17	22	23	#48-48-48-49
127	23	19	18	17	22	#48-48-48-49
128	23	20	26	24	25	#48-48-48-49
129	23	21	20	26	24	#48-48-48-49
130	23	19	18	20	26	#48-48-48-49
131	23	23	22	24	26	#48-48-48-49
132	24	19	18	20	21	#49-48-48-49
133	24	23	22	24	25	#49-48-48-49
134	25	10	13	16	17	#13-13-20-48
135	26	16	22	17	18	#0-0-48-0 (improper)
136	26	17	24	22	23	#0-0-48-0 (improper)
137	26	18	26	20	21	#0-0-48-0 (improper)
138	26	22	26	24	25	#0-0-48-0 (improper)
139	26	20	24	26	27	#0-0-48-0 (improper)
140	26	17	20	18	19	#0-0-48-0 (improper)

Bond Coeffs				

1	23.9799	0.9450	#5-7
2	13.8763	1.4100	#5-13
3	14.7435	1.0900	#13-46
4	11.6214	1.5290	#13-13
5	13.8763	1.4100	#13-20
6	19.5135	1.3640	#20-48
7	20.3374	1.4000	#48-48
8	15.9143	1.0800	#48-49
9	13.7462	1.5100	#13-48		

Angle Coeffs				

1	2.7319	120.00	#48-48-48
2	1.5177	120.00	#49-48-48
3	3.0354	120.00	#13-48-48
4	3.0354	120.00	#20-48-48
5	3.2522	111.00	#13-20-48
6	2.1682	109.50	#13-13-20
7	1.5177	109.50	#20-13-46
8	1.6261	110.70	#46-13-13
9	1.4310	107.80	#46-13-46
10	2.6018	109.50	#13-20-13
11	2.1682	109.50	#5-13-13
12	1.5177	109.50	#5-13-46
13	2.3850	108.50	#7-5-13
14	2.7319	114.00	#48-13-13
15	1.5177	109.50	#48-13-46
16	2.5303	112.70	#13-13-13

Dihedral Coeffs

1	-0.0154	-0.0075	0.0213	0	#7-5-13-13
2	0	0	0.0153	0	#7-5-13-46
3	0.0742	-0.0217	0.0287	0	#48-13-13-13 doesn't exist, using 0-13-13-13
4	0.1873	0	0	0	#5-13-13-20
5	0	0	0.0203	0	#5-13-13-46
6	0.0564	-0.0022	0.0087	0	#13-13-13-13
7	0	0	0.0130	0	#13-13-13-46
8	-0.0238	0	0	0	#20-13-13-20
9	0	0	0.0203	0	#20-13-13-46
10	0	0	0.0130	0	#46-13-13-46
11	0	0	0.0200	0	#48-13-13-46
12	0.0282	-0.0108	0.0291	0	#13-13-20-13
13	0	0	0.0330	0	#46-13-20-13 doesn't exist, using 46-13-20-0
14	0	0	0.0330	0	#46-13-20-48
15	0	0	0	0	#13-13-48-48
16	0	0	0	0	#46-13-48-48
17	0	0.1301	0	0	#13-20-48-48
18	0	0.3144	0	0	#20-48-48-48 doesn't exist, using 0-48-48-48
19	0	0.3144	0	0	#20-48-48-49 doesn't exist, using 0-48-48-49
20	0	0.3144	0	0	#13-48-48-48
21	0	0.3144	0	0	#13-48-48-49
22	0	0.3144	0	0	#48-48-48-48
23	0	0.3144	0	0	#48-48-48-49
24	0	0.3144	0	0	#49-48-48-49
25	0.0282	-0.0108	0.0291	0	#13-13-20-48 doesn't exist, using 13-13-20-13 instead
26	0	0.2168	0	0	#0-0-48-0 (improper)
