LAMMPS Bisphenol A(BPA) data file		#created by Philip Maruri, June 2020; checked by Ian Bourg

33 atoms
34 bonds
56 angles
94 dihedrals

9 atom types
7 bond types
10 angle types
13 dihedral types

-20.0  20.0 xlo xhi		
-20.0  20.0 ylo yhi		
-20.0  20.0 zlo zhi		

Masses		

1	15.999	#109(5) "Phenol -OH" 
2	12.011	#457(13) "t-Bu Benzene -CMe3"
3	12.011	#833(48) "Diphenylmethane Cipso"
4	12.011	#80(13) "Alkane CH3-"
5	12.011	#90(48) "Aromatic C"
6	12.011	#108(48) "Phenol C-OH"
7	1.008	#85(46) "Alkane H-C"
8	1.008	#91(49) "Aromatic H-C"
9	1.008	#110(7) "Phenol -OH"

Atoms						

1	1	1	-0.5850	4.7037	1.7341	-0.1083	#109(5)
2	1	1	-0.5850	-4.6727	1.7597	0.1081	#109(5)
3	1	2	0.1150	0.0069	-1.3899	-0.0004	#457(13)
4	1	3	-0.0575	1.2481	-0.5641	-0.0287	#833(48)
5	1	3	-0.0575	-1.2913	-0.5160	0.0295	#833(48)
6	1	4	-0.1800	-0.1387	-2.3587	1.2335	#80(13)
7	1	4	-0.1800	0.0268	-2.3626	-1.2317	#80(13)
8	1	5	-0.1150	1.4704	0.3250	-1.0800	#90(48)
9	1	5	-0.1150	-1.4471	0.3329	1.0796	#90(48)
10	1	5	-0.1150	2.1871	-0.6812	0.9962	#90(48)
11	1	5	-0.1150	-2.1695	-0.6691	-0.9968	#90(48)
12	1	5	-0.1150	2.6316	1.0973	-1.1066	#90(48)
13	1	5	-0.1150	-2.6042	1.1115	1.1063	#90(48)
14	1	5	-0.1150	3.3485	0.0911	0.9697	#90(48)
15	1	5	-0.1150	-3.3265	0.1096	-0.9702	#90(48)
16	1	6	0.1500	3.5707	0.9805	-0.0817	#108(48)
17	1	6	0.1500	-3.5439	0.9999	0.0814	#108(48)
18	1	7	0.0600	0.6710	-3.0984	1.2558	#85(46)
19	1	7	0.0600	-0.1297	-1.8287	2.1930	#85(46)
20	1	7	0.0600	-1.0828	-2.9165	1.1866	#85(46)
21	1	7	0.0600	0.9347	-2.9802	-1.2087	#85(46)
22	1	7	0.0600	-0.8219	-3.0575	-1.2284	#85(46)
23	1	7	0.0600	0.0417	-1.8360	-2.1932	#85(46)
24	1	8	0.1150	0.7523	0.4367	-1.8878	#91(49)
25	1	8	0.1150	-0.7220	0.4336	1.8792	#91(49)
26	1	8	0.1150	2.0643	-1.3571	1.8352	#91(49)
27	1	8	0.1150	-2.0556	-1.3369	-1.8389	#91(49)
28	1	8	0.1150	2.7926	1.7871	-1.9307	#91(49)
29	1	8	0.1150	-2.7610	1.8023	1.9304	#91(49)
30	1	8	0.1150	4.0769	-0.0041	1.7705	#91(49)
31	1	8	0.1150	-4.0551	0.0196	-1.7715	#91(49)
32	1	9	0.4350	4.6927	2.2917	-0.9051	#110(7)
33	1	9	0.4350	-4.6587	2.3170	0.9052	#110(7)

Bonds						

1	1	1	16	#5-48
2	2	1	32	#5-7
3	1	2	17	#5-48
4	2	2	33	#5-7
5	3	3	4	#13-48
6	3	3	5	#13-48
7	4	3	6	#13-13
8	4	3	7	#13-13
9	5	4	8	#48-48
10	5	4	10	#48-48
11	5	5	9	#48-48
12	5	5	11	#48-48
13	6	6	18	#13-46
14	6	6	19	#13-46
15	6	6	20	#13-46
16	6	7	21	#13-46
17	6	7	22	#13-46
18	6	7	23	#13-46
19	5	8	12	#48-48
20	7	8	24	#48-49
21	5	9	13	#48-48
22	7	9	25	#48-49
23	5	10	14	#48-48
24	7	10	26	#48-49
25	5	11	15	#48-48
26	7	11	27	#48-49
27	5	12	16	#48-48
28	7	12	28	#48-49
29	5	13	17	#48-48
30	7	13	29	#48-49
31	5	14	16	#48-48
32	7	14	30	#48-49
33	5	15	17	#48-48
34	7	15	31	#48-49

Angles				

1	1	32	1	16	#7-5-48
2	1	33	2	17	#7-5-48
3	2	4	3	5	#48-13-48
4	3	6	3	4	#13-13-48
5	3	7	3	4	#13-13-48
6	3	6	3	5	#13-13-48
7	3	7	3	5	#13-13-48
8	4	6	3	7	#13-13-13
9	5	3	4	8	#13-48-48
10	5	3	4	10	#13-48-48
11	6	8	4	10	#48-48-48
12	5	3	5	9	#13-48-48
13	5	3	5	11	#13-48-48
14	6	9	5	11	#48-48-48
15	7	3	6	18	#13-13-46
16	7	3	6	19	#13-13-46
17	7	3	6	20	#13-13-46
18	8	18	6	19	#46-13-46
19	8	18	6	20	#46-13-46
20	8	19	6	20	#46-13-46
21	7	3	7	21	#13-13-46
22	7	3	7	22	#13-13-46
23	7	3	7	23	#13-13-46
24	8	21	7	22	#46-13-46
25	8	21	7	23	#46-13-46
26	8	22	7	23	#46-13-46
27	6	4	8	12	#48-48-48
28	9	4	8	24	#48-48-49
29	9	12	8	24	#48-48-49
30	6	5	9	13	#48-48-48
31	9	5	9	25	#48-48-49
32	9	13	9	25	#48-48-49
33	6	4	10	14	#48-48-48
34	9	4	10	26	#48-48-49
35	9	14	10	26	#48-48-49
36	6	5	11	15	#48-48-48
37	9	5	11	27	#48-48-49
38	9	15	11	27	#48-48-49
39	6	8	12	16	#48-48-48
40	9	8	12	28	#48-48-49
41	9	16	12	28	#48-48-49
42	6	9	13	17	#48-48-48
43	9	9	13	29	#48-48-49
44	9	17	13	29	#48-48-49
45	6	10	14	16	#48-48-48
46	9	10	14	30	#48-48-49
47	9	16	14	30	#48-48-49
48	6	11	15	17	#48-48-48
49	9	11	15	31	#48-48-49
50	9	17	15	31	#48-48-49
51	10	1	16	12	#5-48-48
52	10	1	16	14	#5-48-48
53	6	12	16	14	#48-48-48
54	10	2	17	13	#5-48-48
55	10	2	17	15	#5-48-48
56	6	13	17	15	#48-48-48

Dihedrals

1	1	32	1	16	12	#7-5-48-48
2	1	32	1	16	14	#7-5-48-48
3	1	33	2	17	13	#7-5-48-48
4	1	33	2	17	15	#7-5-48-48
5	2	5	3	4	8	#48-13-48-48
6	2	5	3	4	10	#48-13-48-48
7	3	6	3	4	8	#13-13-48-48
8	3	6	3	4	10	#13-13-48-48
9	3	7	3	4	8	#13-13-48-48
10	3	7	3	4	10	#13-13-48-48
11	2	4	3	5	9	#48-13-48-48
12	2	4	3	5	11	#48-13-48-48
13	3	6	3	5	9	#13-13-48-48
14	3	6	3	5	11	#13-13-48-48
15	3	7	3	5	9	#13-13-48-48
16	3	7	3	5	11	#13-13-48-48
17	4	18	6	3	4	#46-13-13-48
18	4	19	6	3	4	#46-13-13-48
19	4	20	6	3	4	#46-13-13-48
20	4	18	6	3	5	#46-13-13-48
21	4	19	6	3	5	#46-13-13-48
22	4	20	6	3	5	#46-13-13-48
23	5	7	3	6	18	#13-13-13-46
24	5	7	3	6	19	#13-13-13-46
25	5	7	3	6	20	#13-13-13-46
26	4	21	7	3	4	#46-13-13-48
27	4	22	7	3	4	#46-13-13-48
28	4	23	7	3	4	#46-13-13-48
29	4	21	7	3	5	#46-13-13-48
30	4	22	7	3	5	#46-13-13-48
31	4	23	7	3	5	#46-13-13-48
32	5	6	3	7	21	#13-13-13-46
33	5	6	3	7	22	#13-13-13-46
34	5	6	3	7	23	#13-13-13-46
35	6	3	4	8	12	#13-48-48-48
36	7	3	4	8	24	#13-48-48-49
37	8	10	4	8	12	#48-48-48-48
38	9	10	4	8	24	#48-48-48-49
39	6	3	4	10	14	#13-48-48-48
40	7	3	4	10	26	#13-48-48-49
41	8	8	4	10	14	#48-48-48-48
42	9	8	4	10	26	#48-48-48-49
43	6	3	5	9	13	#13-48-48-48
44	7	3	5	9	25	#13-48-48-49
45	8	11	5	9	13	#48-48-48-48
46	9	11	5	9	25	#48-48-48-49
47	6	3	5	11	15	#13-48-48-48
48	7	3	5	11	27	#13-48-48-49
49	8	9	5	11	15	#48-48-48-48
50	9	9	5	11	27	#48-48-48-49
51	8	4	8	12	16	#48-48-48-48
52	9	4	8	12	28	#48-48-48-49
53	9	16	12	8	24	#48-48-48-49
54	10	24	8	12	28	#49-48-48-49
55	8	5	9	13	17	#48-48-48-48
56	9	5	9	13	29	#48-48-48-49
57	9	17	13	9	25	#48-48-48-49
58	10	25	9	13	29	#49-48-48-49
59	8	4	10	14	16	#48-48-48-48
60	9	4	10	14	30	#48-48-48-49
61	9	16	14	10	26	#48-48-48-49
62	10	26	10	14	30	#49-48-48-49
63	8	5	11	15	17	#48-48-48-48
64	9	5	11	15	31	#48-48-48-49
65	9	17	15	11	27	#48-48-48-49
66	10	27	11	15	31	#49-48-48-49
67	11	1	16	12	8	#5-48-48-48
68	8	14	16	12	8	#48-48-48-48
69	12	1	16	12	28	#5-48-48-49
70	9	14	16	12	28	#48-48-48-49
71	11	2	17	13	9	#5-48-48-48
72	8	15	17	13	9	#48-48-48-48
73	12	2	17	13	29	#5-48-48-49
74	9	15	17	13	29	#48-48-48-49
75	11	1	16	14	10	#5-48-48-48
76	8	12	16	14	10	#48-48-48-48
77	12	1	16	14	30	#5-48-48-49
78	9	12	16	14	30	#48-48-48-49
79	11	2	17	15	11	#5-48-48-48
80	8	13	17	15	11	#48-48-48-48
81	12	2	17	15	31	#5-48-48-49
82	9	13	17	15	31	#48-48-48-49
83	13	10	3	4	8	#0-0-48-0 (Improper)
84	13	11	3	5	9	#0-0-48-0 (Improper)
85	13	4	24	8	12	#0-0-48-0 (Improper)
86	13	5	25	9	13	#0-0-48-0 (Improper)
87	13	4	26	10	14	#0-0-48-0 (Improper)
88	13	5	27	11	15	#0-0-48-0 (Improper)
89	13	8	28	12	16	#0-0-48-0 (Improper)
90	13	9	29	13	17	#0-0-48-0 (Improper)
91	13	10	30	14	16	#0-0-48-0 (Improper)
92	13	11	31	15	17	#0-0-48-0 (Improper)
93	13	12	1	16	14	#0-0-48-0 (Improper)
94	13	13	2	17	15	#0-0-48-0 (Improper)

Bond Coeffs				

1	19.5135	1.3640	#5-48
2	23.9799	0.9450	#5-7
3	13.7462	1.5100	#13-48
4	11.6214	1.5290	#13-13
5	20.3374	1.4000	#48-48
6	14.7435	1.0900	#13-46
7	15.9143	1.0800	#48-49

Angle Coeffs				

1	1.5177	113.00	#7-5-48
2	1.7345	109.50	#48-13-48
3	2.7319	114.00	#13-13-48
4	2.5303	112.70	#13-13-13
5	3.0354	120.00	#13-48-48
6	2.7319	120.00	#48-48-48
7	1.6261	110.70	#13-13-46
8	1.4310	107.80	#46-13-46
9	1.5177	120.00	#48-48-49
10	3.0354	120.00	#5-48-48

Dihedral Coeffs

1	0.0000	0.0729	0.0000	0.0000	#7-5-48-48
2	0.0000	0.0000	0.0000	0.0000	#48-13-48-48 (values for 0-13-48-48 used)
3	0.0000	0.0000	0.0000	0.0000	#13-13-48-48
4	0.0000	0.0000	0.0200	0.0000	#46-13-13-48
5	0.0000	0.0000	0.0130	0.0000	#13-13-13-46
6	0.0000	0.3144	0.0000	0.0000	#13-48-48-48
7	0.0000	0.3144	0.0000	0.0000	#13-48-48-49
8	0.0000	0.3144	0.0000	0.0000	#48-48-48-48
9	0.0000	0.3144	0.0000	0.0000	#48-48-48-49
10	0.0000	0.3144	0.0000	0.0000	#49-48-48-49
11	0.0000	0.3144	0.0000	0.0000	#5-48-48-48 (values for 0-48-48-48 used)
12	0.0000	0.3144	0.0000	0.0000	#5-48-48-49 (values for 0-48-48-49 used)
13	0.0000	0.2168	0.0000	0.0000	#0-0-48-0 (Improper)
