LAMMPS 6:2 Fluorotelomer thiohydroxy ammonium data file #created by Ethan Sontarp, summer 2021, checked by Jennie

49 atoms		
48 bonds		
92 angles
126 dihedrals

14 atom types	
7 bond types		
14 angle types
19 dihedral types

-20.0 20.0 xlo xhi		
-20.0 20.0 ylo yhi		
-20.0 20.0 zlo zhi		

Masses		

1 12.011 	#Perfluoroalkane CF3- Carbon
2 18.998	#Perfluoroalkane C-F Fluorine
3 12.011 	#Perfluoroalkane -CF2- Carbon
4 12.011	#Alkane -CH2- Carbon
5 1.008 	#Alkane H-C Hydrogen
6 12.011 	#Sulfide RCH2-SR Carbon
7 32.060	#Sulfide -S- Sulfur
8 12.011 	#Alcohol R2CHOH Carbon
9 15.999	#Alcohol -OH Oxygen
10 1.008 	#Alcohol -OH Hydrogen
11 32.060	#Ammonium RCH2-NR3+ Carbon
12 1.008  	#Ammonium CH3-NR3+ Hydrogen
13 14.007	#Ammonium R4N+ Nitrogen
14 12.011 	#Ammonium CH3-NR3+ Carbon

Atoms						

1	1	1	0.36	-5.505122079	-3.08842611	2.007586796	#OPLS atom type 791(13)
2	1	2	-0.12	-5.281460108	-4.222006008	2.768748391	#OPLS atom type 795(1)
3	1	2	-0.12	-5.848655245	-3.482010341	0.726492104	#OPLS atom type 795(1)
4	1	2	-0.12	-6.565602736	-2.382381244	2.547414531	#OPLS atom type 795(1)
5	1	3	0.24	-4.240829914	-2.213542734	-1.050343408	#OPLS atom type 792(13)
6	1	2	-0.12	-4.511023528	-1.121517631	-1.858994948	#OPLS atom type 795(1)
7	1	2	-0.12	-3.231356726	-2.957471967	-1.639262495	#OPLS atom type 795(1)
8	1	3	0.24	-3.783925586	-1.725336404	0.351868024	#OPLS atom type 792(13)
9	1	2	-0.12	-4.814046465	-0.996940252	0.925143587	#OPLS atom type 795(1)
10	1	2	-0.12	-3.526618358	-2.828520121	1.150133927	#OPLS atom type 795(1)
11	1	3	0.24	-2.50668786	-0.839650324	0.286235186	#OPLS atom type 792(13)
12	1	2	-0.12	-2.765643044	0.265667862	-0.507827538	#OPLS atom type 795(1)
13	1	2	-0.12	-1.495817621	-1.581846707	-0.298127518	#OPLS atom type 795(1)
14	1	3	0.24	-2.049343472	-0.353512656	1.693512479	#OPLS atom type 792(13)
15	1	2	-0.12	-3.103234419	0.312426124	2.298903754	#OPLS atom type 795(1)
16	1	2	-0.12	-1.728581246	-1.44965007	2.478510957	#OPLS atom type 795(1)
17	1	3	0.24	-0.845017889	0.626226289	1.694558536	#OPLS atom type 792(13)
18	1	2	-0.12	-1.174126427	1.760937505	0.970314233	#OPLS atom type 795(1)
19	1	2	-0.12	-0.623345907	1.007433376	3.009062365	#OPLS atom type 795(1)
20	1	4	-0.12	0.463691278	0.0268774449	1.138954808	#OPLS atom type 81(13)
21	1	5	0.06	0.34438774	-0.2349846295	0.069167923	#OPLS atom type 85(46)
22	1	5	0.06	0.720854249	-0.8896475310	1.713481571	#OPLS atom type 85(46)
23	1	6	0.0975	1.629847485	1.0154929197	1.239589926	#OPLS atom type 152(13)
24	1	5	0.06	1.374920108	1.9149410981	0.638406626	#OPLS atom type 85(46)
25	1	5	0.06	1.80483916	1.2976916989	2.29954739	#OPLS atom type 85(46)
26	1	7	-0.435	3.146613289	0.2423859708	0.579206786	#OPLS atom type 144(16)
27	1	6	0.0975	4.021118604	1.822145141	0.295758008	#OPLS atom type 152(13)
28	1	5	0.06	3.531721413	2.3648978622	-0.541916658	#OPLS atom type 85(46)
29	1	5	0.06	3.977697767	2.4278105758	1.227262728	#OPLS atom type 85(46)
30	1	8	0.205	5.496061491	1.568836687	-0.051911061	#OPLS atom type 100(13)
31	1	5	0.06	5.707623841	-0.1452571004	-0.951496869	#OPLS atom type 85(46)
32	1	9	-0.683	5.555449921	0.797233137	-1.224321929	#OPLS atom type 96(5)
33	1	10	0.418	5.737262186	3.44918634	-1.109783722	#OPLS atom type 97(7)
34	1	11	0.05	6.229122783	2.924372494	-0.257977262	#OPLS atom type 889(13)
35	1	12	0.1	5.952121994	1.032736609	0.811072733	#OPLS atom type 892(46)
36	1	12	0.1	6.032365083	3.539417019	0.651268047	#OPLS atom type 892(46)
37	1	13	0	7.710682498	2.873032058	-0.482082278	#OPLS atom type 231(53)
38	1	14	-0.05	8.41028907	2.261517913	0.672873681	#OPLS atom type 888(13)
39	1	12	0.1	8.158418018	1.185913765	0.7829867	#OPLS atom type 892(46)
40	1	12	0.1	8.150286117	2.783016603	1.621043509	#OPLS atom type 892(46)
41	1	12	0.1	9.515109675	2.3152379	0.545247438	#OPLS atom type 892(46)
42	1	14	-0.05	8.190469217	4.270554597	-0.625449727	#OPLS atom type 888(13)
43	1	12	0.1	7.966626381	4.870200993	0.285655192	#OPLS atom type 892(46)
44	1	12	0.1	9.291714095	4.308929986	-0.786655876	#OPLS atom type 892(46)
45	1	12	0.1	7.706865957	4.774493654	-1.492750592	#OPLS atom type 892(46)
46	1	14	-0.05	8.069184095	2.139829379	-1.719276292	#OPLS atom type 888(13)
47	1	12	0.1	9.157348672	2.231355954	-1.937050098	#OPLS atom type 892(46)
48	1	12	0.1	7.510186521	2.535855424	-2.596142394	#OPLS atom type 892(46)
49	1	12	0.1	7.875508585	1.052116348	-1.626653911	#OPLS atom type 892(46)

Bonds						

1	1	1	2	#C-F bond OPLS (13-1)
2	1	1	3	#C-F bond OPLS (13-1)
3	1	1	4	#C-F bond OPLS (13-1)
4	2	1	5	#C-C bond OPLS (13-13)
5	1	5	6	#C-F bond OPLS (13-1)
6	1	5	7	#C-F bond OPLS (13-1)
7	2	5	8	#C-C bond OPLS (13-13)
8	1	8	9	#C-F bond OPLS (13-1)
9	1	8	10	#C-F bond OPLS (13-1)
10	2	8	11	#C-C bond OPLS (13-13)
11	1	11	12	#C-F bond OPLS (13-1)
12	1	11	13	#C-F bond OPLS (13-1)
13	2	11	14	#C-C bond OPLS (13-13)
14	1	14	15	#C-F bond OPLS (13-1)
15	1	14	16	#C-F bond OPLS (13-1)
16	2	14	17	#C-C bond OPLS (13-13)
17	1	17	18	#C-F bond OPLS (13-1)
18	1	17	19	#C-F bond OPLS (13-1)
19	2	17	20	#C-C bond OPLS (13-13)
20	3	20	21	#C-H bond OPLS (13-46)
21	3	20	22	#C-H bond OPLS (13-46)
22	2	20	23	#C-C bond OPLS (13-13)
23	3	23	24	#C-H bond OPLS (13-46)
24	3	23	25	#C-H bond OPLS (13-46)
25	4	23	26	#C-S bond OPLS (13-16)
26	4	26	27	#C-S bond OPLS (13-16)
27	3	27	28	#C-H bond OPLS (13-46)
28	3	27	29	#C-H bond OPLS (13-46)
29	2	27	30	#C-C bond OPLS (13-13)
30	3	30	31	#C-H bond OPLS (13-46)
31	5	30	32	#C-O bond OPLS (13-5)
32	6	32	33	#O-H bond OPLS (5-7)
33	2	30	34	#C-C bond OPLS (13-13)
34	3	34	35	#C-H bond OPLS (13-46)
35	3	34	36	#C-H bond OPLS (13-46)
36	7	34	37	#N-C bond OPLS (53-13)
37	7	37	38	#N-C bond OPLS (53-13)
38	3	38	39	#C-H bond OPLS (13-46)
39	3	38	40	#C-H bond OPLS (13-46)
40	3	38	41	#C-H bond OPLS (13-46)
41	7	37	42	#N-C bond OPLS (53-13)
42	3	42	43	#C-H bond OPLS (13-46)
43	3	42	44	#C-H bond OPLS (13-46)
44	3	42	45	#C-H bond OPLS (13-46)
45	7	37	46	#N-C bond OPLS (53-13)
46	3	46	47	#C-H bond OPLS (13-46)
47	3	46	48	#C-H bond OPLS (13-46)
48	3	46	49	#C-H bond OPLS (13-46)

Angles				

1	1	30	32	33	#C-O-H angle OPLS (13-5-7)
2	2	2	1	3	#F-C-F angle OPLS (1-13-1)
3	2	2	1	4	#F-C-F angle OPLS (1-13-1)
4	2	3	1	4	#F-C-F angle OPLS (1-13-1)
5	2	6	5	7	#F-C-F angle OPLS (1-13-1)
6	2	9	8	10	#F-C-F angle OPLS (1-13-1)
7	2	12	11	13	#F-C-F angle OPLS (1-13-1)
8	2	15	14	16	#F-C-F angle OPLS (1-13-1)
9	2	18	17	19	#F-C-F angle OPLS (1-13-1)
10	3	2	1	5	#F-C-C angle OPLS (1-13-13)
11	3	3	1	5	#F-C-C angle OPLS (1-13-13)
12	3	4	1	5	#F-C-C angle OPLS (1-13-13)
13	3	1	5	6	#F-C-C angle OPLS (1-13-13)
14	3	1	5	7	#F-C-C angle OPLS (1-13-13)
15	3	6	5	8	#F-C-C angle OPLS (1-13-13)
16	3	7	5	8	#F-C-C angle OPLS (1-13-13)
17	3	5	8	9	#F-C-C angle OPLS (1-13-13)
18	3	9	8	11	#F-C-C angle OPLS (1-13-13)
19	3	5	8	10	#F-C-C angle OPLS (1-13-13)
20	3	10	8	11	#F-C-C angle OPLS (1-13-13)
21	3	8	11	12	#F-C-C angle OPLS (1-13-13)
22	3	12	11	14	#F-C-C angle OPLS (1-13-13)
23	3	8	11	13	#F-C-C angle OPLS (1-13-13)
24	3	13	11	14	#F-C-C angle OPLS (1-13-13)
25	3	11	14	15	#F-C-C angle OPLS (1-13-13)
26	3	15	14	17	#F-C-C angle OPLS (1-13-13)
27	3	11	14	16	#F-C-C angle OPLS (1-13-13)
28	3	16	14	17	#F-C-C angle OPLS (1-13-13)
29	3	14	17	18	#F-C-C angle OPLS (1-13-13)
30	3	14	17	19	#F-C-C angle OPLS (1-13-13)
31	3	18	17	20	#F-C-C angle OPLS (1-13-13)
32	3	19	17	20	#F-C-C angle OPLS (1-13-13)
33	4	27	30	32	#C-C-O angle OPLS (13-13-5)
34	4	32	30	34	#C-C-O angle OPLS (13-13-5)
35	5	1	5	8	#C-C-C angle OPLS (13-13-13)
36	5	5	8	11	#C-C-C angle OPLS (13-13-13)
37	5	8	11	14	#C-C-C angle OPLS (13-13-13)
38	5	11	14	17	#C-C-C angle OPLS (13-13-13)
39	5	14	17	20	#C-C-C angle OPLS (13-13-13)
40	5	17	20	23	#C-C-C angle OPLS (13-13-13)
41	5	27	30	34	#C-C-C angle OPLS (13-13-13)
42	6	20	23	26	#C-C-S angle OPLS (13-13-16)
43	6	26	27	30	#C-C-S angle OPLS (13-13-16)
44	7	21	20	22	#H-C-H angle OPLS (46-13-46)
45	7	24	23	25	#H-C-H angle OPLS (46-13-46)
46	7	28	27	29	#H-C-H angle OPLS (46-13-46)
47	7	35	34	36	#H-C-H angle OPLS (46-13-46)
48	7	39	38	40	#H-C-H angle OPLS (46-13-46)
49	7	39	38	41	#H-C-H angle OPLS (46-13-46)
50	7	40	38	41	#H-C-H angle OPLS (46-13-46)
51	7	43	42	44	#H-C-H angle OPLS (46-13-46)
52	7	43	42	45	#H-C-H angle OPLS (46-13-46)
53	7	44	42	45	#H-C-H angle OPLS (46-13-46)
54	7	47	46	48	#H-C-H angle OPLS (46-13-46)
55	7	47	46	49	#H-C-H angle OPLS (46-13-46)
56	7	48	46	49	#H-C-H angle OPLS (46-13-46)
57	8	31	30	32	#H-C-O angle OPLS (46-13-5)
58	9	24	23	26	#H-C-S angle OPLS (46-13-16)
59	9	25	23	26	#H-C-S angle OPLS (46-13-16)
60	9	26	27	28	#H-C-S angle OPLS (46-13-16)
61	9	26	27	29	#H-C-S angle OPLS (46-13-16)
62	10	17	20	21	#C-C-H angle OPLS (13-13-46)
63	10	17	20	22	#C-C-H angle OPLS (13-13-46)
64	10	20	23	24	#C-C-H angle OPLS (13-13-46)
65	10	20	23	25	#C-C-H angle OPLS (13-13-46)
66	10	21	20	23	#C-C-H angle OPLS (13-13-46)
67	10	22	20	23	#C-C-H angle OPLS (13-13-46)
68	10	27	30	31	#C-C-H angle OPLS (13-13-46)
69	10	28	27	30	#C-C-H angle OPLS (13-13-46)
70	10	29	27	30	#C-C-H angle OPLS (13-13-46)
71	10	30	34	35	#C-C-H angle OPLS (13-13-46)
72	10	30	34	36	#C-C-H angle OPLS (13-13-46)
73	10	31	30	34	#C-C-H angle OPLS (13-13-46)
74	11	35	34	37	#H-C-N angle OPLS (46-13-53)
75	11	36	34	37	#H-C-N angle OPLS (46-13-53)
76	11	37	38	39	#H-C-N angle OPLS (46-13-53)
77	11	37	38	40	#H-C-N angle OPLS (46-13-53)
78	11	37	38	41	#H-C-N angle OPLS (46-13-53)
79	11	37	42	43	#H-C-N angle OPLS (46-13-53)
80	11	37	42	44	#H-C-N angle OPLS (46-13-53)
81	11	37	42	45	#H-C-N angle OPLS (46-13-53)
82	11	37	46	47	#H-C-N angle OPLS (46-13-53)
83	11	37	46	48	#H-C-N angle OPLS (46-13-53)
84	11	37	46	49	#H-C-N angle OPLS (46-13-53)
85	12	30	34	37	#C-C-N angle OPLS (13-13-53)
86	13	23	26	27	#C-S-C angle OPLS (13-16-13)
87	14	34	37	38	#C-N-C angle OPLS (13-53-13)
88	14	34	37	42	#C-N-C angle OPLS (13-53-13)
89	14	34	37	46	#C-N-C angle OPLS (13-53-13)
90	14	38	37	42	#C-N-C angle OPLS (13-53-13)
91	14	38	37	46	#C-N-C angle OPLS (13-53-13)
92	14	42	37	46	#C-N-C angle OPLS (13-53-13)

Dihedrals

1	1	27	30	32	33	#C-C-O-H dihedral OPLS (13-13-5-7)
2	1	33	32	30	34	#C-C-O-H dihedral OPLS (13-13-5-7)
3	2	31	30	32	33	#H-C-O-H dihedral OPLS (46-13-5-7)
4	3	2	1	5	6	#F-C-C-F dihedral OPLS (1-13-13-1)
5	3	2	1	5	7	#F-C-C-F dihedral OPLS (1-13-13-1)
6	3	3	1	5	6	#F-C-C-F dihedral OPLS (1-13-13-1)
7	3	3	1	5	7	#F-C-C-F dihedral OPLS (1-13-13-1)
8	3	4	1	5	6	#F-C-C-F dihedral OPLS (1-13-13-1)
9	3	4	1	5	7	#F-C-C-F dihedral OPLS (1-13-13-1)
10	3	6	5	8	9	#F-C-C-F dihedral OPLS (1-13-13-1)
11	3	6	5	8	10	#F-C-C-F dihedral OPLS (1-13-13-1)
12	3	7	5	8	9	#F-C-C-F dihedral OPLS (1-13-13-1)
13	3	7	5	8	10	#F-C-C-F dihedral OPLS (1-13-13-1)
14	3	9	8	11	12	#F-C-C-F dihedral OPLS (1-13-13-1)
15	3	9	8	11	13	#F-C-C-F dihedral OPLS (1-13-13-1)
16	3	10	8	11	12	#F-C-C-F dihedral OPLS (1-13-13-1)
17	3	10	8	11	13	#F-C-C-F dihedral OPLS (1-13-13-1)
18	3	12	11	14	15	#F-C-C-F dihedral OPLS (1-13-13-1)
19	3	12	11	14	16	#F-C-C-F dihedral OPLS (1-13-13-1)
20	3	13	11	14	15	#F-C-C-F dihedral OPLS (1-13-13-1)
21	3	13	11	14	16	#F-C-C-F dihedral OPLS (1-13-13-1)
22	3	15	14	17	18	#F-C-C-F dihedral OPLS (1-13-13-1)
23	3	15	14	17	19	#F-C-C-F dihedral OPLS (1-13-13-1)
24	3	16	14	17	18	#F-C-C-F dihedral OPLS (1-13-13-1)
25	3	16	14	17	19	#F-C-C-F dihedral OPLS (1-13-13-1)
26	4	2	1	5	8	#F-C-C-C dihedral OPLS (1-13-13-13)
27	4	3	1	5	8	#F-C-C-C dihedral OPLS (1-13-13-13)
28	4	4	1	5	8	#F-C-C-C dihedral OPLS (1-13-13-13)
29	4	6	5	8	11	#F-C-C-C dihedral OPLS (1-13-13-13)
30	4	7	5	8	11	#F-C-C-C dihedral OPLS (1-13-13-13)
31	4	9	8	11	14	#F-C-C-C dihedral OPLS (1-13-13-13)
32	4	10	8	11	14	#F-C-C-C dihedral OPLS (1-13-13-13)
33	4	5	8	11	12	#F-C-C-C dihedral OPLS (1-13-13-13)
34	4	12	11	14	17	#F-C-C-C dihedral OPLS (1-13-13-13)
35	4	5	8	11	13	#F-C-C-C dihedral OPLS (1-13-13-13)
36	4	13	11	14	17	#F-C-C-C dihedral OPLS (1-13-13-13)
37	4	8	11	14	15	#F-C-C-C dihedral OPLS (1-13-13-13)
38	4	8	11	14	16	#F-C-C-C dihedral OPLS (1-13-13-13)
39	4	11	14	17	18	#F-C-C-C dihedral OPLS (1-13-13-13)
40	4	11	14	17	19	#F-C-C-C dihedral OPLS (1-13-13-13)
41	4	1	5	8	9	#F-C-C-C dihedral OPLS (1-13-13-13)
42	4	1	5	8	10	#F-C-C-C dihedral OPLS (1-13-13-13)
43	4	15	14	17	20	#F-C-C-C dihedral OPLS (1-13-13-13)
44	4	16	14	17	20	#F-C-C-C dihedral OPLS (1-13-13-13)
45	4	18	17	20	23	#F-C-C-C dihedral OPLS (1-13-13-13)
46	4	19	17	20	23	#F-C-C-C dihedral OPLS (1-13-13-13)
47	5	18	17	20	21	#F-C-C-H dihedral OPLS (1-13-13-46)
48	5	18	17	20	22	#F-C-C-H dihedral OPLS (1-13-13-46)
49	5	19	17	20	21	#F-C-C-H dihedral OPLS (1-13-13-46)
50	5	19	17	20	22	#F-C-C-H dihedral OPLS (1-13-13-46)
51	6	28	27	30	32	#H-C-C-O dihedral OPLS (46-13-13-5)
52	6	29	27	30	32	#H-C-C-O dihedral OPLS (46-13-13-5)
53	6	32	30	34	35	#H-C-C-O dihedral OPLS (46-13-13-5)
54	6	32	30	34	36	#H-C-C-O dihedral OPLS (46-13-13-5)
55	7	1	5	8	11	#C-C-C-C dihedral OPLS (13-13-13-13)
56	7	5	8	11	14	#C-C-C-C dihedral OPLS (13-13-13-13)
57	7	8	11	14	17	#C-C-C-C dihedral OPLS (13-13-13-13)
58	7	11	14	17	20	#C-C-C-C dihedral OPLS (13-13-13-13)
59	7	14	17	20	23	#C-C-C-C dihedral OPLS (13-13-13-13)
60	8	17	20	23	26	#C-C-C-S dihedral OPLS (13-13-13-16)
61	8	26	27	30	34	#C-C-C-S dihedral OPLS (13-13-13-16)
62	9	14	17	20	21	#C-C-C-H dihedral OPLS (13-13-13-46)
63	9	14	17	20	22	#C-C-C-H dihedral OPLS (13-13-13-46)
64	9	17	20	23	24	#C-C-C-H dihedral OPLS (13-13-13-46)
65	9	17	20	23	25	#C-C-C-H dihedral OPLS (13-13-13-46)
66	9	27	30	34	35	#C-C-C-H dihedral OPLS (13-13-13-46)
67	9	27	30	34	36	#C-C-C-H dihedral OPLS (13-13-13-46)
68	9	28	27	30	34	#C-C-C-H dihedral OPLS (13-13-13-46)
69	9	29	27	30	34	#C-C-C-H dihedral OPLS (13-13-13-46)
70	10	27	30	34	37	#C-C-C-N dihedral OPLS (13-13-13-53)
71	11	21	20	23	26	#H-C-C-S dihedral OPLS (46-13-13-16)
72	11	22	20	23	26	#H-C-C-S dihedral OPLS (46-13-13-16)
73	11	26	27	30	31	#H-C-C-S dihedral OPLS (46-13-13-16)
74	12	21	20	23	24	#H-C-C-H dihedral OPLS (46-13-13-46)
75	12	21	20	23	25	#H-C-C-H dihedral OPLS (46-13-13-46)
76	12	22	20	23	24	#H-C-C-H dihedral OPLS (46-13-13-46)
77	12	22	20	23	25	#H-C-C-H dihedral OPLS (46-13-13-46)
78	12	28	27	30	31	#H-C-C-H dihedral OPLS (46-13-13-46)
79	12	29	27	30	31	#H-C-C-H dihedral OPLS (46-13-13-46)
80	12	31	30	34	35	#H-C-C-H dihedral OPLS (46-13-13-46)
81	12	31	30	34	36	#H-C-C-H dihedral OPLS (46-13-13-46)
82	13	31	30	34	37	#H-C-C-N dihedral OPLS (46-13-13-53)
83	14	20	23	26	27	#C-C-S-C dihedral OPLS (13-13-16-13)
84	14	23	26	27	30	#C-C-S-C dihedral OPLS (13-13-16-13)
85	15	24	23	26	27	#H-C-S-C dihedral OPLS (46-13-16-13)
86	15	25	23	26	27	#H-C-S-C dihedral OPLS (46-13-16-13)
87	15	23	26	27	28	#H-C-S-C dihedral OPLS (46-13-16-13)
88	15	23	26	27	29	#H-C-S-C dihedral OPLS (46-13-16-13)
89	16	30	34	37	38	#C-C-N-C dihedral OPLS (13-13-53-13)
90	16	30	34	37	42	#C-C-N-C dihedral OPLS (13-13-53-13)
91	16	30	34	37	46	#C-C-N-C dihedral OPLS (13-13-53-13)
92	17	35	34	37	38	#H-C-N-C dihedral OPLS (46-13-53-13)
93	17	35	34	37	42	#H-C-N-C dihedral OPLS (46-13-53-13)
94	17	35	34	37	46	#H-C-N-C dihedral OPLS (46-13-53-13)
95	17	36	34	37	38	#H-C-N-C dihedral OPLS (46-13-53-13)
96	17	36	34	37	42	#H-C-N-C dihedral OPLS (46-13-53-13)
97	17	36	34	37	46	#H-C-N-C dihedral OPLS (46-13-53-13)
98	17	34	37	38	39	#H-C-N-C dihedral OPLS (46-13-53-13)
99	17	34	37	38	40	#H-C-N-C dihedral OPLS (46-13-53-13)
100	17	34	37	38	41	#H-C-N-C dihedral OPLS (46-13-53-13)
101	17	34	37	42	43	#H-C-N-C dihedral OPLS (46-13-53-13)
102	17	34	37	42	44	#H-C-N-C dihedral OPLS (46-13-53-13)
103	17	34	37	42	45	#H-C-N-C dihedral OPLS (46-13-53-13)
104	17	34	37	46	47	#H-C-N-C dihedral OPLS (46-13-53-13)
105	17	34	37	46	48	#H-C-N-C dihedral OPLS (46-13-53-13)
106	17	34	37	46	49	#H-C-N-C dihedral OPLS (46-13-53-13)
107	17	39	38	37	42	#H-C-N-C dihedral OPLS (46-13-53-13)
108	17	39	38	37	46	#H-C-N-C dihedral OPLS (46-13-53-13)
109	17	40	38	37	42	#H-C-N-C dihedral OPLS (46-13-53-13)
110	17	40	38	37	46	#H-C-N-C dihedral OPLS (46-13-53-13)
111	17	41	38	37	42	#H-C-N-C dihedral OPLS (46-13-53-13)
112	17	41	38	37	46	#H-C-N-C dihedral OPLS (46-13-53-13)
113	17	38	37	42	43	#H-C-N-C dihedral OPLS (46-13-53-13)
114	17	43	42	37	46	#H-C-N-C dihedral OPLS (46-13-53-13)
115	17	38	37	42	44	#H-C-N-C dihedral OPLS (46-13-53-13)
116	17	44	42	37	46	#H-C-N-C dihedral OPLS (46-13-53-13)
117	17	38	37	42	45	#H-C-N-C dihedral OPLS (46-13-53-13)
118	17	45	42	37	46	#H-C-N-C dihedral OPLS (46-13-53-13)
119	17	38	37	46	47	#H-C-N-C dihedral OPLS (46-13-53-13)
120	17	42	37	46	47	#H-C-N-C dihedral OPLS (46-13-53-13)
121	17	38	37	46	48	#H-C-N-C dihedral OPLS (46-13-53-13)
122	17	42	37	46	48	#H-C-N-C dihedral OPLS (46-13-53-13)
123	17	38	37	46	49	#H-C-N-C dihedral OPLS (46-13-53-13)
124	17	42	37	46	49	#H-C-N-C dihedral OPLS (46-13-53-13)
125	18	32	30	34	37	#O-C-C-N dihedral OPLS (46-13-13-53)
126	19	26	27	30	32	#S-C-C-O dihedral OPLS (16-13-13-5)

Bond Coeffs				

1	15.9143678	1.36	#force constant and equilibrium length for bond type 1 (13-1)	
2	11.6213912	1.529	#force constant and equilibrium length for bond type 2 (13-13)	
3	14.743556	1.09	#force constant and equilibrium length for bond type 3 (13-46)	
4	9.6266748	1.81	#force constant and equilibrium length for bond type 4 (13-16)	
5	13.876288	1.41	#force constant and equilibrium length for bond type 5 (13-5)	
6	23.9799602	0.945	#force constant and equilibrium length for bond type 6 (5-7)	
7	15.9143678	1.471	#force constant and equilibrium length for bond type 7 (53-13)	

Angle Coeffs				

1	2.384987	108.5	#force constant and equilibrium angle for angle type 1 (13-5-7)	
2	3.3389818	109.1	#force constant and equilibrium angle for angle type 2 (1-13-1)	
3	2.16817	109.5	#force constant and equilibrium angle for angle type 3 (1-13-13)	
4	2.16817	109.5	#force constant and equilibrium angle for angle type 4 (13-13-5)	
5	2.53025439	112.7	#force constant and equilibrium angle for angle type 5 (13-13-13)	
6	2.16817	114.7	#force constant and equilibrium angle for angle type 6 (13-13-16)	
7	1.4309922	107.8	#force constant and equilibrium angle for angle type 7 (46-13-46)	
8	1.517719	109.5	#force constant and equilibrium angle for angle type 8 (46-13-5)	
9	1.517719	109.5	#force constant and equilibrium angle for angle type 9 (46-13-16)	
10	1.6261275	110.7	#force constant and equilibrium angle for angle type 10 (13-13-46)	
11	1.517719	109.5	#force constant and equilibrium angle for angle type 11 (46-13-53)	
12	3.469072	111.2	#force constant and equilibrium angle for angle type 12 (13-13-53)	
13	2.6885308	98.9	#force constant and equilibrium angle for angle type 13 (13-16-13)	
14	2.16817	113	#force constant and equilibrium angle for angle type 14 (13-53-13)	

Dihedral Coeffs

1	-0.01543737	-0.007545232	0.021334793	0	#torsions for dihedral type 1 (13-13-5-7)
2	0	0	0.015263917	0	#torsions for dihedral type 2  (46-13-5-7)
3	-0.1084085	0	0.01084085	0	#torsions for dihedral type 3 (1-13-13-1)
4	0.01300902	-0.01734536	0.01734536	0	#torsions for dihedral type 4 (1-13-13-13)
5	0	0	0.01734536	0	#torsions for dihedral type 5 (1-13-13-46)
6	0	0	0.020294071	0	#torsions for dihedral type 6 (46-13-13-5)
7	0.287152435	0.041108503	-0.060188399	-0.091843681	#torsions for dihedral type 7 (13-13-13-13)
8	0.113568745	-0.026885308	0.011187757	0	#torsions for dihedral type 8 (13-13-13-16)
9	0	0	0.01300902	0	#torsions for dihedral type 9 (13-13-13-46)
10	0.118468809	-0.009930219	0.021031249	0	#torsions for dihedral type 10 (13-13-13-53)
11	0	0	0.019600257	0	#torsions for dihedral type 11 (46-13-13-16)
12	0	0	0.01300902	0	#torsions for dihedral type 12  (46-13-13-46)
13	0	0	0.016651546	0	#torsions for dihedral type 13 (46-13-13-53)
14	0.040111145	-0.024977318	0.029357022	0	#torsions for dihedral type 14 (13-13-16-13)
15	0	0	0.02805612	0	#torsions for dihedral type 15 (46-13-16-13)
16	0.062356569	-0.005377062	0.011447938	0	#torsions for dihedral type 16 (13-13-53-13)
17	0	0	0.013095747	0	#torsions for dihedral type 17 (46-13-53-13)
18	0	0	0.016651546	0	#torsions for dihedral type 18 (46-13-13-53)
19	-0.067299997	0	0	0	#torsions for dihedral type 19  (16-13-13-5) * No OPLS-AA parameters for type 19 - used OPLS (13-13-13-5) for highest degree of specificity with C (13) behaving similarly to S (16) in main chain

