LAMMPS DNOC data file	#created by Raneem Mohammed, May 2020; checked by Ian Bourg

20 atoms		
20 bonds		
31 angles
46 dihedrals
		
10 atom types	
8 bond types		
10 angle types
13 dihedral types
		
-12.0  12.0 xlo xhi		
-12.0  12.0 ylo yhi		
-12.0  12.0 zlo zhi		

Masses		
					
1	1.008	#85(46)
2	12.011	#93(13)
3	12.011	#90(48)
4	12.011	#108(48)
5	12.011	#709(48)
6	15.999	#109(5)
7	1.008	#110(7)
8	14.007	#708(102)
9	15.999	#702(103)
10	1.008	#91(49)

Atoms
						
1	1	1	0.06	0.8576	3.5824	0.8956	#85(46)
2	1	1	0.06	-0.6413	3.8097	0.0000	#85(46)
3	1	1	0.06	0.858	3.5824	-0.8954	#85(46)
4	1	2	-0.065	0.3113	3.2682	0.0000	#93(13)
5	1	3	-0.115	0.1060	1.7889	0.0000	#90(48)
6	1	4	0.15	1.1944	0.9166	0.0000	#108(48)
7	1	5	0.09	0.9831	-0.4621	0.0000	#709(48)
8	1	3	-0.115	-0.3166	-0.9686	0.0000	#90(48)
9	1	5	0.09	-1.405	-0.0962	0.0000	#709(48)
10	1	3	-0.115	-1.1938	1.2826	0.0000	#90(48)
11	1	6	-0.585	2.4634	1.4194	0.0000	#109(5)
12	1	7	0.435	2.4618	2.3887	0.0000	#110(7)
13	1	8	0.65	2.0802	-1.3674	0.0000	#708(102)
14	1	8	0.65	-2.7283	-0.6115	0.0000	#708(102)
15	1	9	-0.37	-3.6931	0.1907	0.0000	#702(103)
16	1	9	-0.37	-2.8965	-1.8549	0.0000	#702(103)
17	1	9	-0.37	1.8488	-2.5995	0.0000	#702(103)
18	1	9	-0.37	3.2459	-0.9063	0.0000	#702(103)
19	1	10	0.115	-0.4847	-2.0430	0.0000	#91(49)
20	1	10	0.115	-2.0296	1.9785	0.0000	#91(49)

Bonds						

1	1	1	4	#C-H	#13-46
2	1	2	4	#C-H	#13-46
3	1	3	4	#C-H	#13-46
4	2	4	5	#C-C	#13-48
5	3	5	6	#C-C	#48-48
6	3	6	7	#C-C	#48-48
7	3	7	8	#C-C	#48-48
8	3	8	9	#C-C	#48-48
9	3	9	10	#C-C	#48-48
10	3	10	5	#C-C	#48-48
11	4	6	11	#C-O	#5-48
12	5	11	12	#O-H	#5-7
13	6	7	13	#N-C	#48-102
14	7	13	18	#N-O	#102-103
15	7	13	17	#N-O	#102-103
16	6	9	14	#N-C	#48-102
17	7	14	16	#N-O	#102-103
18	7	14	15	#N-O	#102-103
19	8	19	8	#H-O	#48-49
20	8	20	10	#H-O	#48-49

Angles				

1	1	1	4	2	#46-13-46
2	1	1	4	3	#46-13-46
3	2	1	4	5	#46-13-48
4	1	2	4	3	#46-13-46
5	2	2	4	5	#46-13-48
6	2	3	4	5	#46-13-48
7	3	4	5	6	#13-48-48
8	3	4	5	10	#13-48-48
9	4	5	6	7	#48-48-48
10	4	6	7	8	#48-48-48
11	4	7	8	9	#48-48-48
12	4	8	9	10	#48-48-48
13	4	9	10	5	#48-48-48
14	4	10	5	6	#48-48-48
15	5	11	6	5	#5-48-48
16	5	11	6	7	#5-48-48
17	6	12	11	6	#7-5-48
18	7	13	7	6	#48-48-102
19	7	13	7	8	#48-48-102
20	8	17	13	7	#48-102-103
21	8	18	13	7	#48-102-103
22	8	16	14	9	#48-102-103
23	8	15	14	9	#48-102-103
24	7	14	9	10	#48-48-102
25	7	14	9	8	#48-48-102
26	9	20	10	5	#48-48-49
27	9	20	10	9	#48-48-49
28	9	19	8	9	#48-48-49
29	9	19	8	7	#48-48-49
30	10	15	14	16	#103-102-103
31	10	17	13	18	#103-102-103

Dihedrals

1	1	1	4	5	10	#46-13-48-48
2	1	1	4	5	6	#46-13-48-48
3	1	2	4	5	10	#46-13-48-48
4	1	2	4	5	6	#46-13-48-48
5	1	3	4	5	10	#46-13-48-48
6	1	3	4	5	6	#46-13-48-48
7	2	4	5	6	11	#5-48-48-13
8	3	4	5	6	7	#13-48-48-48
9	3	4	5	10	9	#13-48-48-48
10	4	5	6	7	8	#48-48-48-48
11	4	6	7	8	9	#48-48-48-48
12	4	7	8	9	10	#48-48-48-48
13	4	8	9	10	5	#48-48-48-48
14	4	9	10	5	6	#48-48-48-48
15	4	10	5	6	7	#48-48-48-48
16	5	11	6	5	10	#5-48-48-48
17	5	11	6	7	8	#5-48-48-48
18	6	11	6	7	13	#5-48-48-102
19	7	12	11	6	5	#7-5-48-48
20	7	12	11	6	7	#7-5-48-48
21	8	13	7	6	5	#48-48-48-102
22	8	13	7	8	9	#48-48-48-102
23	9	17	13	7	8	#48-48-102-103
24	9	17	13	7	6	#48-48-102-103
25	9	18	13	7	8	#48-48-102-103
26	9	18	13	7	6	#48-48-102-103
27	8	14	9	10	5	#48-48-48-102
28	8	14	9	8	7	#48-48-48-102
29	9	16	14	9	10	#48-48-102-103
30	9	16	14	9	8	#48-48-102-103
31	9	15	14	9	10	#48-48-102-103
32	9	15	14	9	8	#48-48-102-103
33	12	20	10	5	4	#13-48-48-49
34	10	20	10	5	6	#48-48-48-49
35	11	20	10	9	14	#49-48-48-102
36	10	20	10	9	8	#48-48-48-49
37	11	19	8	9	14	#49-48-48-102
38	10	19	8	9	10	#48-48-48-49
39	11	19	8	7	13	#49-48-48-102
40	10	19	8	7	6	#48-48-48-49
41	13	5	7	6	11	#0-0-48-0 (improper)
42	13	6	8	7	13	#0-0-48-0 (improper)
43	13	7	9	8	19	#0-0-48-0 (improper)
44	13	8	10	9	14	#0-0-48-0 (improper)
45	13	9	5	10	20	#0-0-48-0 (improper)
46	13	10	6	5	4	#0-0-48-0 (improper)

Bond Coeffs				

1	14.7435	1.0900	#13-46
2	13.7462	1.5100	#13-48
3	20.3374	1.4000	#48-48
4	19.5135	1.3640	#5-48
5	23.9799	0.9450	#5-7
6	17.3453	1.4600	#48-102
7	23.8498	1.2250	#102-103
8	15.9143	1.0800	#48-49

Angle Coeffs				

1	1.4310	107.80	#46-13-46
2	1.5177	109.50	#46-13-48
3	3.0354	120.00	#13-48-48
4	2.7319	120.00	#48-48-48
5	3.0354	120.00	#5-48-48
6	1.5177	113.00	#7-5-48
7	3.6859	120.00	#48-48-102
8	3.4691	117.50	#48-102-103
9	1.5177	120.00	#48-48-49
10	3.4691	125.00	#103-102-103

Dihedral Coeffs

1	0.0000	0.0000	0.0000	0.0000	#46-13-48-48
2	0.0000	0.3144	0.0000	0.0000	#5-48-48-13 (doesn't exist; using 0-48-48-13)
3	0.0000	0.3144	0.0000	0.0000	#13-48-48-48
4	0.0000	0.3144	0.0000	0.0000	#48-48-48-48
5	0.0000	0.3144	0.0000	0.0000	#5-48-48-48 (doesn't exist; using 0-48-48-48)
6	0.0000	0.3144	0.0000	0.0000	#5-48-48-102 (doesn't exist; using 0-48-48-0)
7	0.0000	0.0729	0.0000	0.0000	#7-5-48-48
8	0.0000	0.3144	0.0000	0.0000	#48-48-48-102 (doesn't exist; using 0-48-48-48)
9	0.0000	0.0499	0.0000	0.0000	#48-48-102-103
10	0.0000	0.3144	0.0000	0.0000	#48-48-48-49
11	0.0000	0.3144	0.0000	0.0000	#49-48-48-102 (doesn't exist; using 0-48-48-0)
12	0.0000	0.3144	0.0000	0.0000	#13-48-48-49
13	0.00000	0.2168	0.00000	0.00000	#0-0-48-0 (improper)

