LAMMPS DNT data file	#created by Morgan Wiese, summer 2021, checked by Ian Bourg	
											
19 atoms								
19 bonds								
30 angles
44 dihedrals																								
7 atom types												
6 bond types												
8 angle types
11 dihedral types

-10.0 10.0 xlo xhi		
-10.0 10.0 ylo yhi		
-10.0 10.0 zlo zhi		
												
Masses												
												
1	1.008											
2	12.011											
3	1.008											
4	12.011											
5	15.999											
6	14.007											
7	12.011											
												
Atoms												
												
1	1	1	0.06	3.1131	1.5417	-0.9101	#85/46					
2	1	1	0.06	3.1127	1.5414	0.9106	#85/46					
3	1	1	0.06	2.4886	2.8835	0.0002	#85/46					
4	1	4	-0.065	2.5562	1.7876	0.0001	#93/13					
5	1	2	-0.115	1.1879	1.186	-0.0002	#90/48					
6	1	7	0.09	1.0032	-0.1966	-0.0003	#709/48					
7	1	6	0.65	2.1155	-1.0831	0.0002	#708/102					
8	1	5	-0.37	3.2733	-0.6023	-0.0002	#702/103					
9	1	5	-0.37	1.905	-2.319	0.0006	#702/103					
10	1	2	-0.115	-0.2867	-0.7279	-0.0003	#90/48					
11	1	3	0.115	-0.4347	-1.8053	-0.0002	#91/49					
12	1	7	0.09	-1.3916	0.1236	-0.0001	#709/48					
13	1	6	0.65	-2.7049	-0.4165	0.0001	#708/102					
14	1	5	-0.37	-2.8498	-1.6628	-0.0004	#702/103					
15	1	5	-0.37	-3.6846	0.3675	0.0004	#702/103					
16	1	2	-0.115	-1.2066	1.5062	0.0001	#90/48					
17	1	3	0.115	-2.0437	2.1996	0.0003	#91/49					
18	1	2	-0.115	0.083	2.0374	0.0001	#90/48					
19	1	3	0.115	0.2074	3.1172	0.0003	#91/49					
												
Bonds												
												
1	1	1	4	#46-13								
2	1	2	4	#46-13								
3	1	3	4	#46-13								
4	2	4	5	#13-48								
5	3	5	6	#48-48								
6	4	6	7	#48-102								
7	5	7	8	#102-103								
8	5	7	9	#102-103								
9	3	6	10	#48-48								
10	6	10	11	#48-49								
11	3	10	12	#48-48								
12	4	12	13	#48-102								
13	5	13	14	#102-103								
14	5	13	15	#102-103								
15	3	12	16	#48-48								
16	6	16	17	#48-49								
17	3	16	18	#48-48								
18	6	18	19	#48-49								
19	3	18	5	#48-48								
												
Angles												
												
1	1	1	4	2	#46-13-46							
2	1	2	4	3	#46-13-46							
3	2	3	4	5	#46-13-48							
4	2	1	4	5	#46-13-48							
5	3	4	5	6	#13-48-48							
6	4	5	6	7	#48-48-102							
7	5	6	7	8	#48-102-103							
8	6	8	7	9	#103-102-103							
9	5	6	7	9	#48-102-103							
10	4	7	6	10	#48-48-102							
11	7	6	10	11	#48-48-49							
12	7	11	10	12	#48-48-49							
13	4	10	12	13	#48-48-102							
14	5	12	13	14	#48-102-103							
15	6	14	13	15	#103-102-103							
16	5	12	13	15	#48-102-103							
17	4	13	12	16	#48-48-102							
18	7	12	16	17	#48-48-49							
19	7	17	16	18	#48-48-49							
20	7	16	18	19	#48-48-49							
21	7	5	18	19	#48-48-49							
22	3	4	5	18	#13-48-48							
23	8	5	6	10	#48-48-48							
24	8	6	10	12	#48-48-48							
25	8	10	12	16	#48-48-48							
26	8	12	16	18	#48-48-48							
27	8	16	18	5	#48-48-48							
28	8	6	5	18	#48-48-48							
29	2	2	4	5	#46-13-48							
30	1	1	4	3	#46-13-46

Dihedrals

1	1	1	4	5	6	#46-13-48-48
2	1	1	4	5	18	#46-13-48-48
3	1	2	4	5	6	#46-13-48-48
4	1	2	4	5	18	#46-13-48-48
5	1	3	4	5	6	#46-13-48-48
6	1	3	4	5	18	#46-13-48-48
7	2	4	5	6	7	#0-48-48-13
8	3	4	5	6	10	#13-48-48-48
9	3	4	5	18	16	#13-48-48-48
10	4	4	5	18	19	#13-48-48-49
11	5	5	6	7	8	#48-48-102-103
12	5	5	6	7	9	#48-48-102-103
13	6	5	6	10	11	#48-48-48-49
14	7	5	6	10	12	#48-48-48-48
15	5	8	7	6	10	#48-48-102-103
16	5	9	7	6	10	#48-48-102-103
17	8	7	6	10	11	#0-48-48-49
18	9	7	6	10	12	#0-48-48-48
19	9	6	10	12	13	#0-48-48-48
20	7	6	10	12	16	#48-48-48-48
21	7	6	5	18	16	#48-48-48-48
22	6	6	5	18	19	#48-48-48-49
23	7	10	6	5	18	#48-48-48-48
24	5	10	12	13	14	#48-48-102-103
25	5	10	12	13	15	#48-48-102-103
26	6	10	12	16	17	#48-48-48-49
27	7	10	12	16	18	#48-48-48-48
28	6	11	10	12	16	#48-48-48-49
29	8	11	10	12	13	#0-48-48-49
30	5	14	13	12	16	#48-48-102-103
31	5	15	13	12	16	#48-48-102-103
32	8	13	12	16	17	#0-48-48-49
33	9	13	12	16	18	#0-48-48-48
34	6	12	16	18	19	#48-48-48-49
35	7	12	16	18	5	#48-48-48-48
36	10	17	16	18	19	#49-48-48-49
37	6	17	16	18	5	#48-48-48-49
38	9	7	6	5	18	#0-48-48-48
39	11	6	18	5	4	#0-0-48-0
40	11	7	10	6	5	#0-0-48-0
41	11	6	12	10	11	#0-0-48-0
42	11	10	16	12	13	#0-0-48-0
43	11	12	18	16	17	#0-0-48-0
44	11	5	16	18	19	#0-0-48-0							
												
Bond Coeffs												
												
1	14.7435	1.0900	#13-46									
2	13.7462	1.5100	#13-48									
3	20.3374	1.4000	#48-48									
4	17.3453	1.4600	#48-102									
5	23.8498	1.2250	#102-103									
6	15.9143	1.0800	#48-49									
												
Angle Coeffs												
												
1	1.4310	107.80	#46-13-46									
2	1.5177	109.50	#46-13-48									
3	3.0354	120.00	#13-48-48									
4	3.6859	120.00	#48-48-102									
5	3.4691	117.50	#48-102-103									
6	3.4691	125.00	#103-102-103									
7	1.5177	120.00	#48-48-49									
8	2.7319	120.00	#48-48-48

Dihedral Coeffs

1	0.0000	0.0000	0.0000	0.0000	#46-13-48-48
2	0.0000	0.3144	0.0000	0.0000	#102-48-48-13 (using 0-48-48-13)
3	0.0000	0.3144	0.0000	0.0000	#13-48-48-48
4	0.0000	0.3144	0.0000	0.0000	#13-48-48-49
5	0.0000	0.0499	0.0000	0.0000	#48-48-102-103
6	0.0000	0.3144	0.0000	0.0000	#48-48-48-49
7	0.0000	0.3144	0.0000	0.0000	#48-48-48-48
8	0.0000	0.3144	0.0000	0.0000	#102-48-48-49 (using 0-48-48-49)
9	0.0000	0.3144	0.0000	0.0000	#102-48-48-48 (using 0-48-48-48)
10	0.0000	0.3144	0.0000	0.0000	#49-48-48-49
11	0.0000	0.2168	0.0000	0.0000	#0-0-48-0 (improper)
									