LAMMPS NMP (N-Methyl-2-Pyrrolidone) data file #created by Philip Maruri, summer 2020, checked by Ian Bourg		

16 atoms
16 bonds
30 angles
41 dihedrals

8 atom types
6  bond types
12 angle types
17 dihedral types

-5.0  5.0 xlo xhi		
-5.0  5.0 ylo yhi		
-4.0  4.0 zlo zhi		

Masses		

1	15.999
2	14.007
3	12.011
4	12.011
5	12.011
6	12.011
7	1.008
8	1.008

Atoms						

1	1	1	-0.6000	1.0953	-1.7042	0.0498	#846(4)
2	1	2	-0.3600	0.5109	0.5758	0.0065	#847(107)
3	1	3	-0.1200	-1.7866	0.3643	0.2327	#81(13)
4	1	4	0.0600	-0.6992	1.3470	-0.1527	#849(13)
5	1	3	-0.1200	-1.2120	-0.9910	-0.1621	#81(13)
6	1	5	0.6000	0.2782	-0.7974	-0.0051	#845(3)
7	1	6	0.0000	1.8133	1.2054	0.0309	#848(13)
8	1	7	0.0600	-2.7445	0.5790	-0.2490	#85(46)
9	1	7	0.0600	-1.9424	0.3907	1.3186	#85(46)
10	1	8	0.0600	-0.7776	1.6553	-1.2002	#852(46)
11	1	8	0.0600	-0.6867	2.2264	0.4974	#852(46)
12	1	7	0.0600	-1.4276	-1.2275	-1.2087	#85(46)
13	1	7	0.0600	-1.5745	-1.7915	0.4870	#85(46)
14	1	8	0.0600	2.5965	0.4539	0.1590	#852(46)
15	1	8	0.0600	1.8473	1.9166	0.8604	#852(46)
16	1	8	0.0600	1.9668	1.7321	-0.9148	#852(46)

Bonds						

1	1	1	6	#3-4
2	2	2	4	#13-107
3	3	2	6	#3-107
4	2	2	7	#13-107
5	4	3	4	#13-13
6	4	3	5	#13-13
7	5	3	8	#13-46
8	5	3	9	#13-46
9	5	4	10	#13-46
10	5	4	11	#13-46
11	6	5	6	#3-13
12	5	5	12	#13-46
13	5	5	13	#13-46
14	5	7	14	#13-46
15	5	7	15	#13-46
16	5	7	16	#13-46

Angles				

1	1	4	2	6	#3-107-13
2	2	4	2	7	#13-107-13
3	1	6	2	7	#3-107-13
4	3	4	3	5	#13-13-13
5	4	4	3	8	#13-13-46
6	4	4	3	9	#13-13-46
7	4	5	3	8	#13-13-46
8	4	5	3	9	#13-13-46
9	5	8	3	9	#46-13-46
10	6	2	4	3	#13-13-107
11	7	2	4	10	#46-13-107
12	7	2	4	11	#46-13-107
13	4	3	4	10	#13-13-46
14	4	3	4	11	#13-13-46
15	5	10	4	11	#46-13-46
16	8	6	5	3	#3-13-13
17	4	3	5	12	#13-13-46
18	4	3	5	13	#13-13-46
19	9	6	5	12	#3-13-46
20	9	6	5	13	#3-13-46
21	5	12	5	13	#46-13-46
22	10	1	6	2	#4-3-107
23	11	1	6	3	#4-3-13
24	12	2	6	5	#13-3-107
25	7	2	7	14	#46-13-107
26	7	2	7	15	#46-13-107
27	7	2	7	16	#46-13-107
28	5	14	7	15	#46-13-46
29	5	14	7	16	#46-13-46
30	5	15	7	16	#46-13-46

Dihedrals

1	1	6	2	4	3	#13-13-107-3
2	2	6	2	4	10	#46-13-107-3
3	2	6	2	4	11	#46-13-107-3
4	3	7	2	4	3	#13-13-107-13
5	4	7	2	4	10	#46-13-107-13
6	4	7	2	4	11	#46-13-107-13
7	5	1	6	2	4	#4-3-107-13
8	6	5	6	2	4	#13-3-107-13
9	5	1	6	2	7	#4-3-107-13
10	6	5	6	2	7	#13-3-107-13
11	4	4	2	7	14	#46-13-107-13
12	4	4	2	7	15	#46-13-107-13
13	4	4	2	7	16	#46-13-107-13
14	2	6	2	7	14	#46-13-107-3
15	2	6	2	7	15	#46-13-107-3
16	2	6	2	7	16	#46-13-107-3
17	7	5	3	4	2	#13-13-13-107
18	8	5	3	4	10	#13-13-13-46
19	8	5	3	4	11	#13-13-13-46
20	9	2	4	3	8	#46-13-13-107
21	10	10	4	3	8	#46-13-13-46
22	10	11	4	3	8	#46-13-13-46
23	9	2	4	3	9	#46-13-13-107
24	10	10	4	3	9	#46-13-13-46
25	10	11	4	3	9	#46-13-13-46
26	11	4	3	5	6	#3-13-13-13
27	8	4	3	5	12	#13-13-13-46
28	8	4	3	5	13	#13-13-13-46
29	12	6	5	3	8	#3-13-13-46
30	10	12	5	3	8	#46-13-13-46
31	10	13	5	3	8	#46-13-13-46
32	12	6	5	3	9	#3-13-13-46
33	10	12	5	3	9	#46-13-13-46
34	10	13	5	3	9	#46-13-13-46
35	13	1	6	5	3	#4-3-13-13
36	14	2	6	5	3	#107-3-13-13
37	15	1	6	5	12	#4-3-13-46
38	16	2	6	5	12	#107-3-13-46
39	15	1	6	5	13	#4-3-13-46
40	16	2	6	5	13	#107-3-13-46
41	17	2	5	6	1	#0-0-3-4 (improper)

Bond Coeffs				

1	24.7171	1.2290	#3-4
2	14.6134	1.4490	#13-107
3	21.2480	1.3350	#3-107
4	11.6214	1.5290	#13-13
5	14.7435	1.0900	#13-46
6	13.7462	1.5220	#3-13

Angle Coeffs				

1	2.1682	121.90	#3-107-13
2	2.1682	118.00	#13-107-13
3	2.5303	112.70	#13-13-13
4	1.6261	110.70	#13-13-46
5	1.4310	107.80	#46-13-46
6	3.4691	109.70	#13-13-107
7	1.5177	109.50	#46-13-107
8	2.7319	111.10	#3-13-13
9	1.5177	109.50	#3-13-46
10	3.4691	122.90	#4-3-107
11	3.4691	120.40	#4-3-13
12	3.0354	116.60	#13-3-107

Dihedral Coeffs

1	-0.0605	-0.0185	0.0000	0.0000	#13-13-107-3
2	0.0000	0.0000	-0.0060	0.0000	#46-13-107-3
3	0.2061	-0.0318	0.0000	0.0000	#13-13-107-13
4	0.0000	0.00000	0.0000	0.0000	#46-13-107-13
5	0.0000	0.2125	0.0000	0.0000	#4-3-107-13
6	0.0000	0.2125	0.0000	0.0000	#13-3-107-13
7	0.0852	0.0000	0.0286	0.0000	#13-13-13-107
8	0.0000	0.0000	0.0130	0.0000	#13-13-13-46
9	0.0000	0.0000	0.0201	0.0000	#46-13-13-107
10	0.0000	0.0000	0.0130	0.0000	#46-13-13-46
11	-0.0893	-0.0136	0.0137	0.0000	#3-13-13-13
12	0.0000	0.0000	-0.0043	0.0000	#3-13-13-46
13	0.0000	0.0000	0.0000	0.0000	#4-3-13-13
14	0.0509	0.0082	-0.0520	0.0000	#107-3-13-13 (doesn't exist; using 24-3-13-13)
15	0.0000	0.0000	0.0000	0.0000	#4-3-13-46
16	0.0000	0.0000	0.0000	0.0000	#107-3-13-46
17	0.0000	0.9106	0.0000	0.0000	#0-0-3-4 (improper)
