LAMMPS Carbaryl data file #created by Amélie Lemay, June 2021; checked by Ian		

26 atoms		
27 bonds		
43 angles
70 dihedrals #58 proper, 12 improper		

11 atom types	
9 bond types		
12 angle types
17 dihedral types #14 proper, 3 improper		

-20.0 20.0 xlo xhi		
-20.0 20.0 ylo yhi		
-20.0 20.0 zlo zhi		

Masses		

1	12.011
2	12.011
3	12.011
4	15.999
5	12.011
6	15.999
7	14.007
8	1.008
9	12.011
10	1.008
11	1.008				

Atoms						

1	1	1	-0.115	-7.675561601	2.416978683	0.200109576	#90(48)	"Aromatic C"
2	1	1	-0.115	-6.575543805	3.274694535	0.2036467943	#90(48)	"Aromatic C"
3	1	2	0	-5.270462912	2.78539696	0.0160460739	#92(48)	"Naphthalene Fusion C"
4	1	2	0	-5.057443756	1.398378952	-0.1798190988	#92(48)	"Naphthalene Fusion C"
5	1	3	0.135	-6.189872725	0.5519228366	-0.1475276349	#413(48)	"Phenyl Ester Cipso"
6	1	1	-0.115	-7.484551213	1.053225728	0.0210464393	#90(48)	"Aromatic C"
7	1	1	-0.115	-4.17619396	3.665788402	0.0164813072	#90(48)	"Aromatic C"
8	1	1	-0.115	-2.877902623	3.196169031	-0.178361992	#90(48)	"Aromatic C"
9	1	1	-0.115	-2.657361469	1.840158953	-0.387508856	#90(48)	"Aromatic C"
10	1	1	-0.115	-3.734772018	0.9512960528	-0.3958900823	#90(48)	"Aromatic C"
11	1	4	-0.215	-6.119265346	-0.8336731004	-0.3813369489	#414(20)	"Phenyl Ester -OPh"
12	1	5	0.51	-5.598653865	-1.602520185	0.6476820243	#406(3)	"Ester -COOR"
13	1	6	-0.43	-4.963894527	-1.194039886	1.612713679	#407(4)	"Ester C=O"
14	1	7	-0.5	-5.85336641	-2.938557426	0.4968712133	#180(24)	"Amide -CO-NHR"
15	1	8	0.3	-5.447755928	-3.515580682	1.221746116	#183(45)	"Amide -CO-NHR"
16	1	9	0.02	-6.793329095	-3.523226868	-0.4261461154	#184(13)	"Amide -NH-CH3"
17	1	10	0.06	-7.442869221	-2.7706395	-0.8787703895	#85(46)	"Alkane H-C"
18	1	10	0.06	-6.238602815	-4.055798002	-1.201452286	#85(46)	"Alkane H-C"
19	1	10	0.06	-7.40827707	-4.235940054	0.1304327027	#85(46)	"Alkane H-C"
20	1	11	0.115	-8.337327808	0.3809722456	0.009293276	#91(49)	"Aromatic H-C"
21	1	11	0.115	-8.67747462	2.815387752	0.3344628504	#91(49)	"Aromatic H-C"
22	1	11	0.115	-6.745448892	4.339867766	0.3481398919	#91(49)	"Aromatic H-C"
23	1	11	0.115	-4.328406553	4.731503696	0.1734996543	#91(49)	"Aromatic H-C"
24	1	11	0.115	-2.041441646	3.889681951	-0.1651826155	#91(49)	"Aromatic H-C"
25	1	11	0.115	-1.6470021	1.468602747	-0.5356875987	#91(49)	"Aromatic H-C"
26	1	11	0.115	-3.531186364	-0.1046242821	-0.5544879814	#91(49)	"Aromatic H-C"

Bonds						

1	1	1	2	#48-48
2	1	2	3	#48-48
3	1	3	4	#48-48
4	1	4	5	#48-48
5	1	1	6	#48-48
6	1	3	7	#48-48
7	1	7	8	#48-48
8	1	8	9	#48-48
9	1	9	10	#48-48
10	1	4	10	#48-48
11	1	5	6	#48-48
12	2	5	11	#20-48
13	3	11	12	#3-20
14	4	12	13	#3-4
15	5	12	14	#3-24
16	6	14	15	#24-25
17	7	14	16	#13-24
18	8	16	17	#13-46
19	8	16	18	#13-46
20	8	16	19	#13-46
21	9	6	20	#48-49
22	9	1	21	#48-49
23	9	2	22	#48-49
24	9	7	23	#48-49
25	9	8	24	#48-49
26	9	9	25	#48-49
27	9	10	26	#48-49

Angles				

1	1	11	12	13	#4-3-20
2	2	13	12	14	#4-3-24
3	3	11	12	14	#20-3-24
4	4	17	16	18	#46-13-46
5	4	17	16	19	#46-13-46
6	4	18	16	19	#46-13-46
7	5	14	16	17	#24-13-46
8	5	14	16	18	#24-13-46
9	5	14	16	19	#24-13-46
10	6	5	11	12	#3-20-48
11	7	12	14	16	#3-24-13
12	8	12	14	15	#3-24-45
13	9	15	14	16	#13-24-45
14	10	1	2	3	#48-48-48
15	10	3	7	8	#48-48-48
16	10	4	10	9	#48-48-48
17	10	1	6	5	#48-48-48
18	10	2	1	6	#48-48-48
19	10	7	8	9	#48-48-48
20	10	8	9	10	#48-48-48
21	10	2	3	4	#48-48-48
22	10	4	3	7	#48-48-48
23	10	3	4	10	#48-48-48
24	10	2	3	7	#48-48-48
25	10	3	4	5	#48-48-48
26	10	4	5	6	#48-48-48
27	10	5	4	10	#48-48-48
28	11	4	5	11	#20-48-48
29	11	6	5	11	#20-48-48
30	12	1	2	22	#48-48-49
31	12	1	6	20	#48-48-49
32	12	2	1	21	#48-48-49
33	12	6	1	21	#48-48-49
34	12	7	8	24	#48-48-49
35	12	8	7	23	#48-48-49
36	12	8	9	25	#48-48-49
37	12	9	8	24	#48-48-49
38	12	9	10	26	#48-48-49
39	12	10	9	25	#48-48-49
40	12	3	2	22	#48-48-49
41	12	3	7	23	#48-48-49
42	12	4	10	26	#48-48-49
43	12	5	6	20	#48-48-49

Dihedrals

1	1	5	11	12	13	#4-3-20-48
2	2	13	12	14	16	#4-3-24-13
3	3	13	12	14	15	#4-3-24-45
4	4	11	12	14	16	#20-3-24-13
5	5	11	12	14	15	#20-3-24-45
6	6	12	14	16	17	#46-13-24-3
7	6	12	14	16	18	#46-13-24-3
8	6	12	14	16	19	#46-13-24-3
9	7	15	14	16	17	#46-24-13-45
10	7	15	14	16	18	#46-24-13-45
11	7	15	14	16	19	#46-24-13-45
12	8	4	5	11	12	#3-20-48-48
13	8	6	5	11	12	#3-20-48-48
14	9	3	4	5	11	#0-48-48-48
15	9	10	4	5	11	#0-48-48-48
16	9	1	6	5	11	#0-48-48-48
17	10	11	5	6	20	#0-48-48-49
18	11	1	2	3	4	#48-48-48-48
19	11	4	3	7	8	#48-48-48-48
20	11	3	4	10	9	#48-48-48-48
21	11	1	2	3	7	#48-48-48-48
22	11	2	3	7	8	#48-48-48-48
23	11	1	6	5	4	#48-48-48-48
24	11	2	1	6	5	#48-48-48-48
25	11	2	3	4	5	#48-48-48-48
26	11	5	4	3	7	#48-48-48-48
27	11	2	3	4	10	#48-48-48-48
28	11	7	3	4	10	#48-48-48-48
29	11	3	2	1	6	#48-48-48-48
30	11	3	7	8	9	#48-48-48-48
31	11	4	10	9	8	#48-48-48-48
32	11	3	4	5	6	#48-48-48-48
33	11	5	4	10	9	#48-48-48-48
34	11	6	5	4	10	#48-48-48-48
35	11	7	8	9	10	#48-48-48-48
36	12	2	1	6	20	#48-48-48-49
37	12	6	1	2	22	#48-48-48-49
38	12	7	8	9	25	#48-48-48-49
39	12	8	9	10	26	#48-48-48-49
40	12	9	8	7	23	#48-48-48-49
41	12	10	9	8	24	#48-48-48-49
42	12	2	3	7	23	#48-48-48-49
43	12	7	3	2	22	#48-48-48-49
44	12	3	2	1	21	#48-48-48-49
45	12	3	7	8	24	#48-48-48-49
46	12	4	10	9	25	#48-48-48-49
47	12	3	4	10	26	#48-48-48-49
48	12	4	3	2	22	#48-48-48-49
49	12	4	3	7	23	#48-48-48-49
50	12	4	5	6	20	#48-48-48-49
51	12	5	4	10	26	#48-48-48-49
52	12	5	6	1	21	#48-48-48-49
53	13	20	6	1	21	#49-48-48-49
54	13	21	1	2	22	#49-48-48-49
55	13	23	7	8	24	#49-48-48-49
56	13	24	8	9	25	#49-48-48-49
57	13	25	9	10	26	#49-48-48-49
58	14	5	11	12	14	#24-3-20-48 does not exist in OPLS database, using 24-3-20-13 instead
59	15	11	14	12	13	#0-0-3-4 (improper)
60	16	12	15	14	16	#0-0-24-0 (improper)
61	17	1	3	2	22	#0-0-48-0 (improper)
62	17	8	3	7	23	#0-0-48-0 (improper)
63	17	9	4	10	26	#0-0-48-0 (improper)
64	17	1	5	6	20	#0-0-48-0 (improper)
65	17	2	6	1	21	#0-0-48-0 (improper)
66	17	7	9	8	24	#0-0-48-0 (improper)
67	17	8	10	9	25	#0-0-48-0 (improper)
68	17	2	4	3	7	#0-0-48-0 (improper)
69	17	3	5	4	10	#0-0-48-0 (improper)
70	17	4	11	5	6	#0-0-48-0 (improper)

Bond Coeffs				

1	20.33736612	1.4	#48-48
2	19.51346429	1.364	#20-48
3	9.279736351	1.327	#3-20
4	24.71705477	1.229	#3-4
5	21.24799445	1.335	#3-24
6	18.81965223	1.01	#24-45
7	14.61341659	1.449	#13-24
8	14.74350635	1.09	#13-46
9	15.91431421	1.08	#48-49		

Angle Coeffs				

1	3.59915008	123.4	#4-3-20
2	3.469060318	122.9	#4-3-24
3	3.512423572	111.4	#20-3-24
4	1.430987381	107.8	#46-13-46
5	1.517713889	109.5	#24-13-46
6	3.59915008	116.9	#3-20-48
7	2.168162699	121.9	#3-24-13
8	1.517713889	119.8	#3-24-45
9	1.647803651	118.4	#13-24-45
10	2.731885001	120	#48-48-48
11	3.035427779	120	#20-48-48
12	1.517713889	120	#48-48-49

Dihedral Coeffs

1	0	0.2168162699	0	0	#4-3-20-48
2	0	0.2640388535	0	0	#4-3-24-13
3	0	0.2124799445	0	0	#4-3-24-45
4	0.09973548415	0.2640388535	0	0	#20-3-24-13
5	0	0.2124799445	0	0	#20-3-24-45
6	0	0	0	0	#46-13-24-3
7	0	0	0	0	#46-13-24-45
8	0	0.1084081349	0	0	#3-20-48-48
9	0	0.3143835913	0	0	#0-48-48-48
10	0	0.3143835913	0	0	#0-48-48-49
11	0	0.3143835913	0	0	#48-48-48-48
12	0	0.3143835913	0	0	#48-48-48-49
13	0	0.3143835913	0	0	#49-48-48-49
14	-0.08672650796	0.2168162699	0	0	#24-3-20-13
15	0	0.9106283336	0	0	#0-0-3-4 (improper)
16	0	0.2168162699	0	0	#0-0-24-0 (improper)
17	0	0.2168162699	0	0	#0-0-48-0 (improper)

