LAMMPS DBP data file #updated by Jennie in summer 2021 		

42 atoms		
42 bonds		
74 angles
104 dihedrals		

10 atom types	
8 bond types		
12 angle types
19 dihedral types #two impropers		

-12.0 12.0 xlo xhi		
-12.0 12.0 ylo yhi		
-12.0 12.0 zlo zhi		

Masses		

1 12.011	#CDBP					
2 1.008		#HDBP					
3 12.011	#C2DBP
4 15.999	#ODBP					
5 15.999	#O2DBP
6 12.011	#C3DBP
7 1.008		#H2DBP
8 12.011	#C4DBP
9 1.008		#H3DBP
10 12.011	#C5DBP

Atoms						  

1	1	1	-0.115	-1.6729756914      2.9263710943     -0.4666992053	#90(48)
2	1	1	-0.115	-2.8639493263      2.2392754318     -0.2243809512	#90(48)
3	1	1	-0.115	-2.8218413198      0.9245500217      0.2253629943	#90(48)
4	1	1	-0.115	-1.5890530932      0.3079181525      0.4491176721	#90(48)
5	1	1	-0.115	-0.3784405735      0.9934781445      0.2190617625	#90(48)
6	1	1	-0.115	-0.4251630095      2.3091384139     -0.2479568335	#90(48)
7	1	2	0.115	-1.7177396659      3.9552296574     -0.8220961765	#91(49)
8	1	2	0.115	-3.8212538385      2.7292269706     -0.3890780060	#91(49)
9	1	2	0.115	-3.7450669564      0.3775627433      0.4049173309	#91(49)
10	1	2	0.115	-1.5732384524     -0.7232211536      0.8019935232	#91(49)
11	1	3	0.625	0.7566919935      3.1351476126     -0.5526552095	#412(3)
12	1	3	0.625	0.8529930731      0.2302548797      0.5165167076	#412(3)
13	1	4	-0.43	0.8778515129      3.7266752545     -1.6117023937	#407(4)
14	1	4	-0.43	0.8991626879     -0.5572034366      1.4501485265	#407(4)
15	1	5	-0.33	1.5230349840      3.2798019480      0.5553618440	#408(20)
16	1	5	-0.33	1.7953352800      0.3918659046     -0.4429017605	#408(20)
17	1	6	0.19	2.5354483721      4.3038538680      0.4713961983	#409(13)
18	1	6	0.19	2.8942776352     -0.5427912717     -0.3881527795	#409(13)
19	1	7	0.03	2.5087017066      4.8552150725      1.4170655575	#410(46)
20	1	7	0.03	2.3262196005      5.0280351627     -0.3245614442	#410(46)
21	1	7	0.03	2.8735256314     -1.1159873198     -1.3208576768	#410(46)
22	1	7	0.03	2.8010237061     -1.2587385811      0.4357821626	#410(46)
23	1	8	-0.12	3.9033286754      3.6649341320      0.2798075746	#81(13)
24	1	8	-0.12	4.2139415186      0.2079088321     -0.2692075505	#81(13)
25	1	9	0.06	3.8762718768      3.0204093524     -0.6046923463	#85(46)
26	1	9	0.06	4.1110443914      3.0178043420      1.1394706324	#85(46)
27	1	9	0.06	4.1686373190      0.8692120324      0.6010105309	#85(46)
28	1	9	0.06	4.3452283888      0.8471521316     -1.1498554262	#85(46)
29	1	8	-0.12	5.0207940408      4.6926782229      0.1245084559	#81(13)
30	1	8	-0.12	5.4065707912     -0.7341100599     -0.1205401925	#81(13)
31	1	9	0.06	5.0160902581      5.3859965697      0.9729007707	#85(46)
32	1	9	0.06	4.8549948455      5.2850393536     -0.7827569507	#85(46)
33	1	9	0.06	5.4305402547     -1.4470173558     -0.9521665231 	#85(46)
34	1	9	0.06	5.3032626717     -1.3147946732      0.8037088191	#85(46)
35	1	10	-0.18	6.3831053531      4.0188992930      0.0381819296 	#80(13)
36	1	10	-0.18	6.7205081673      0.0320497027     -0.0793176161	#80(13)
37	1	9	0.06	6.6029971840      3.4623544861      0.9551576940	#85(46)
38	1	9	0.06	7.1702417578      4.7668141919     -0.0997990646	#85(46)
39	1	9	0.06	6.4261817151      3.3211077511     -0.8043371817	#85(46)
40	1	9	0.06	6.8884684429      0.5716082004     -1.0169572350	#85(46)
41	1	9	0.06	7.5577685493     -0.6572312645      0.0692681153	#85(46)
42	1	9	0.06	6.7293763401      0.7574063109      0.7405544162	#85(46)

Bonds						

1	1	1	2
2	1	1	6
3	1	2	3
4	1	3	4
5	1	4	5
6	1	5	6
7	2	1	7
8	2	2	8
9	2	3	9
10	2	4	10
11	3	6	11
12	3	5	12
13	4	11	13	
14	4	12	14
15	5	11	15
16	5	12	16
17	6	15	17
18	6	16	18
19	7	17	19
20	7	17	20
21	7	18	21
22	7	18	22
23	8	17	23
24	8	18	24
25	7	23	25
26	7	23	26
27	7	24	27
28	7	24	28
29	8	23	29
30	8	24	30
31	7	29	31
32	7	29	32
33	7	30	33
34	7	30	34
35	8	29	35
36	8	30	36
37	7	35	37
38	7	35	38
39	7	35	39
40	7	36	40
41	7	36	41
42	7	36	42

Angles				

1	1	1	2	3
2	1	2	3	4
3	1	3	4	5
4	1	4	5	6
5	1	5	6	1
6	1	6	1	2
7	2	7	1	2
8	2	1	2	8
9	2	8	2	3
10	2	2	3	9
11	2	9	3	4
12	2	3	4	10	
13	2	10	4	5
14	2	6	1	7
15	3	1	6	11
16	3	5	6	11
17	3	4	5	12
18	3	6	5	12
19	4	6	11	13
20	4	5	12	14
21	5	6	11	15
22	5	5	12	16
23	6	13	11	15
24	6	14	12	16
25	7	11	15	17
26	7	12	16	18
27	8	15	17	19
28	8	15	17	20
29	8	16	18	21
30	8	16	18	22
31	9	15	17	23
32	9	16	18	24
33	10	19	17	20
34	10	21	18	22
35	11	19	17	23
36	11	20	17	23
37	11	21	18	24
38	11	22	18	24
39	11	17	23	25
40	11	17	23	26
41	11	18	24	27
42	11	18	24	28
43	10	25	23	26
44	10	27	24	28
45	12	17	23	29
46	12	18	24	30
47	11	25	23	29
48	11	26	23	29
49	11	27	24	30
50	11	28	24	30
51	11	23	29	31
52	11	23	29	32
53	11	24	30	33
54	11	24	30	34
55	12	23	29	35
56	12	24	30	36
57	10	31	29	32
58	10	33	30	34
59	11	31	29	35
60	11	32	29	35
61	11	33	30	36
62	11	34	30	36
63	11	29	35	37
64	11	29	35	38
65	11	29	35	39
66	11	30	36	40
67	11	30	36	41
68	11	30	36	42
69	10	37	35	38
70	10	37	35	39
71	10	38	35	39
72	10	40	36	41
73	10	40	36	42
74	10	41	36	42

Dihedrals

1	1	7	1	2	8
2	1	8	2	3	9
3	1	9	3	4	10
4	2	3	2	1	7
5	2	5	6	1	7
6	2	4	3	2	8
7	2	6	1	2	8
8	2	5	4	3	9
9	2	1	2	3	9
10	2	6	5	4	10
11	2	2	3	4	10
12	3	1	2	3	4
13	3	2	3	4	5
14	3	3	4	5	6
15	3	4	5	6	1
16	3	5	6	1	2
17	3	6	1	2	3
18	4	13	11	6	1
19	4	13	11	6	5
20	4	14	12	5	4
21	4	14	12	5	6
22	5	15	11	6	1
23	5	15	11	6	5
24	5	16	12	5	4
25	5	16	12	5	6
26	6	6	11	15	17
27	6	5	12	16	18
28	7	13	11	15	17
29	7	14	12	16	18
30	8	19	17	15	11
31	8	20	17	15	11
32	8	21	18	16	12
33	8	22	18	16	12
34	9	23	17	15	11
35	9	24	18	16	12
36	10	15	17	23	25
37	10	15	17	23	26
38	10	16	18	24	27
39	10	16	18	24	28
40	11	17	23	29	35
41	11	18	24	30	36
42	12	17	23	29	31
43	12	17	23	29	32
44	12	18	24	30	33
45	12	18	24	30	34
46	12	23	29	35	37
47	12	23	29	35	38
48	12	23	29	35	39
49	12	24	30	36	40
50	12	24	30	36	41
51	12	24	30	36	42
52	12	29	23	17	19
53	12	29	23	17	20
54	12	30	24	18	21
55	12	30	24	18	22
56	12	35	29	23	25
57	12	35	29	23	26
58	12	36	30	24	27
59	12	36	30	24	28
60	13	19	17	23	25
61	13	19	17	23	26
62	13	20	17	23	25
63	13	20	17	23	26
64	13	21	18	24	27
65	13	21	18	24	28
66	13	22	18	24	27
67	13	22	18	24	28
68	13	25	23	29	31
69	13	25	23	29	32
70	13	26	23	29	31
71	13	26	23	29	32
72	13	27	24	30	33
73	13	27	24	30	34
74	13	28	24	30	33
75	13	28	24	30	34
76	13	31	29	35	37
77	13	31	29	35	38
78	13	31	29	35	39
79	13	32	29	35	37
80	13	32	29	35	38
81	13	32	29	35	39
82	13	33	30	36	40
83	13	33	30	36	41
84	13	33	30	36	42
85	13	34	30	36	40
86	13	34	30	36	41
87	13	34	30	36	42
88	14	7	1	6	11
89	14	10	4	5	12
90	15	2	1	6	11
91	15	4	5	6	11
92	15	3	4	5	12
93	15	1	6	5	12
94	16	11	6	5	12
95	17	15	17	23	29
96	17	16	18	24	30	
97	18	2	6	1	7
98	18	1	3	2	8
99	18	2	4	3	9
100	18	3	5	4	10
101	18	4	6	5	12
102	18	1	5	6	11
103	19	6	13	11	15
104	19	5	14	12	16



Bond Coeffs				

1	20.34	1.4	#48-48
2	15.91	1.08	#48-48
3	17.35	1.49	#3-48	
4	24.72	1.229	#3-4
5	9.28	1.327	#3-20
6	13.88	1.41	#13-20
7	14.74	1.09	#13-46
8	11.62	1.529	#13-13

Angle Coeffs				

1	3.68	120.00	#48-48-48		
2	1.52	120.00	#48-48-49
3	3.68	120.00	#3-48-48
4	3.47	120.00	#4-3-48
5	3.51	111.40	#20-3-48
6	3.60	123.40	#4-3-20
7	3.60	116.90	#3-20-13
8	1.52	109.50	#20-13-46	
9	2.17	109.50	#20-13-13
10	1.43	107.80	#46-13-46
11	1.63	110.70	#13-13-46
12	2.53	112.70	#13-13-13

Dihedral Coeffs

1	0.0	0.314	0.0	0.0	#49-48-48-49	
2	0.0	0.314	0.0	0.0	#49-48-48-48
3	0.0	0.314	0.0	0.0	#48-48-48-48
4	0.0	0.091	0.0	0.0	#4-3-48-48
5	0.0	0.091	0.0	0.0	#20-3-48-48
6	0.173	0.217	0.0	0.0	#48-3-20-13
7	0.0	0.222	0.0	0.0	#4-3-20-13
8	0.0	0.0	0.0086	0.0	#46-13-20-3
9	-0.053	-0.0055	0.0183	0.0	#13-13-20-3
10	0.0	0.0	0.0203	0.0	#20-13-13-46
11	0.0564	-0.0022	0.0087	0.0	#13-13-13-13
12	0.0	0.0	0.0130	0.0	#13-13-13-46
13	0.0	0.0	0.0130	0.0	#46-13-13-46
14	0.0	0.314	0.0	0.0	#3-48-48-49 estimated as X-48-48-49
15	0.0	0.314	0.0	0.0	#3-48-48-48 estimated as X-48-48-48
16	0.0	0.314	0.0	0.0	#3-48-48-3 estimated as X-48-48-X
17	0.0564	-0.0022	0.0087	0.0	#13-13-13-20
18	0	0.2168	0	0	#X-X-48-X improper
19	0	0.9106	0	0	#X-X-3-4 improper
