LAMMPS Aspirin (Acetylsalicylic acid) data file	#created by Amélie Lemay, June 2021; checked by Ian Bourg	

20 atoms		
20 bonds		
31 angles
46 dihedrals	#38 proper, 8 improper		

11 atom types	
9 bond types		
12 angle types
15 dihedral types	#12 proper, 3 improper		

-20.0 20.0 xlo xhi		
-20.0 20.0 ylo yhi		
-20.0 20.0 zlo zhi		

Masses		

1	15.999
2	15.999
3	15.999
4	12.011
5	12.011
6	12.011
7	12.011
8	12.011
9	12.011
10	1.008
11	1.008

Atoms						

1	1	1	-0.215	1.222805143	0.6269655335	0.8071317934	#414(20)	"Phenyl Ester -OPh"
2	1	2	-0.8	-0.8338615058	-2.929772095	-0.000961968	#214(52)	"Carboxylate COO-"
3	1	2	-0.8	1.193231182	-1.938048081	0.0518722014	#214(52)	"Carboxylate COO-"
4	1	3	-0.43	1.883743301	1.444692448	-1.286442586	#407(4)	"Ester C=O"
5	1	4	0.135	-0.1086117512	0.6424871191	0.3863096142	#413(48)	"Phenyl Ester Cipso"
6	1	5	-0.1	-0.764027026	-0.5529644393	0.053405377	#842(48)	"Benzoate C-COO-"
7	1	6	-0.115	-0.7819412707	1.870613749	0.4155416672	#90(48)	"Aromatic C"
8	1	6	-0.115	-2.130124063	-0.4632575297	-0.2783019811	#90(48)	"Aromatic C"
9	1	6	-0.115	-2.131275396	1.929056514	0.0757027209	#90(48)	"Aromatic C"
10	1	6	-0.115	-2.806110542	0.7613578897	-0.2716811431	#90(48)	"Aromatic C"
11	1	7	0.7	-0.0787092012	-1.905353874	0.0377768786	#213(3)	"Carboxylate COO-"
12	1	8	0.51	2.112030326	0.8565861736	-0.2330425378	#406(3)	"Ester -COOR"
13	1	9	-0.18	3.486607389	0.439358164	0.2016849789	#80(13)	"Alkane CH3-"
14	1	10	0.115	-0.2479840723	2.772968044	0.6941553527	#91(49)	"Aromatic H-C"
15	1	10	0.115	-2.667624245	-1.373206698	-0.544134937	#91(49)	"Aromatic H-C"
16	1	10	0.115	-2.654145047	2.879813054	0.0837328152	#91(49)	"Aromatic H-C"
17	1	10	0.115	-3.858587701	0.7931028232	-0.5363402261	#91(49)	"Aromatic H-C"
18	1	11	0.06	3.91832977	1.213014642	0.8409002688	#85(46)	"Alkane H-C"
19	1	11	0.06	4.116057907	0.2987843731	-0.6815206212	#85(46)	"Alkane H-C"
20	1	11	0.06	3.447496801	-0.5118978115	0.7384123326	#85(46)	"Alkane H-C"

Bonds						

1	1	1	5	#20-48
2	2	1	12	#3-20
3	3	2	11	#3-52
4	3	3	11	#3-52
5	4	4	12	#3-4
6	5	5	6	#48-48
7	5	5	7	#48-48
8	5	6	8	#48-48
9	6	6	11	#3-48
10	5	7	9	#48-48
11	7	7	14	#48-49
12	5	8	10	#48-48
13	7	8	15	#48-49
14	5	9	10	#48-48
15	7	9	16	#48-49
16	7	10	17	#48-49
17	8	12	13	#3-13
18	9	13	18	#13-46
19	9	13	19	#13-46
20	9	13	20	#13-46

Angles				

1	1	4	12	13	#4-3-13
2	2	1	12	13	#13-3-20
3	3	1	12	4	#4-3-20
4	4	2	11	6	#48-3-52
5	4	3	11	6	#48-3-52
6	5	2	11	3	#52-3-52
7	6	18	13	19	#46-13-46
8	6	18	13	20	#46-13-46
9	6	19	13	20	#46-13-46
10	7	12	13	18	#3-13-46
11	7	12	13	19	#3-13-46
12	7	12	13	20	#3-13-46
13	8	5	1	12	#3-20-48
14	9	5	6	8	#48-48-48
15	9	5	7	9	#48-48-48
16	9	6	5	7	#48-48-48
17	9	6	8	10	#48-48-48
18	9	7	9	10	#48-48-48
19	9	8	10	9	#48-48-48
20	10	1	5	6	#20-48-48
21	10	1	5	7	#20-48-48
22	11	5	6	11	#3-48-48
23	11	8	6	11	#3-48-48
24	12	5	7	14	#48-48-49
25	12	6	8	15	#48-48-49
26	12	7	9	16	#48-48-49
27	12	8	10	17	#48-48-49
28	12	9	7	14	#48-48-49
29	12	9	10	17	#48-48-49
30	12	10	8	15	#48-48-49
31	12	10	9	16	#48-48-49

Dihedrals

1	1	4	12	13	18	#4-3-13-46
2	1	4	12	13	19	#4-3-13-46
3	1	4	12	13	20	#4-3-13-46
4	2	1	12	13	18	#20-3-13-46
5	2	1	12	13	19	#20-3-13-46
6	2	1	12	13	20	#20-3-13-46
7	3	4	12	1	5	#4-3-20-48
8	4	5	1	12	13	#13-3-20-48
9	5	6	5	1	12	#3-20-48-48
10	5	7	5	1	12	#3-20-48-48
11	6	1	5	6	11	#0-48-48-0
12	7	1	5	6	8	#0-48-48-48
13	7	1	5	7	9	#0-48-48-48
14	7	7	5	6	11	#0-48-48-48
15	7	10	8	6	11	#0-48-48-48
16	8	1	5	7	14	#0-48-48-49
17	8	11	6	8	15	#0-48-48-49
18	9	5	6	8	10	#48-48-48-48
19	9	5	7	9	10	#48-48-48-48
20	9	6	5	7	9	#48-48-48-48
21	9	6	8	10	9	#48-48-48-48
22	9	7	5	6	8	#48-48-48-48
23	9	7	9	10	8	#48-48-48-48
24	10	5	6	8	15	#48-48-48-49
25	10	5	7	9	16	#48-48-48-49
26	10	6	5	7	14	#48-48-48-49
27	10	6	8	10	17	#48-48-48-49
28	10	7	9	10	17	#48-48-48-49
29	10	8	10	9	16	#48-48-48-49
30	10	9	10	8	15	#48-48-48-49
31	10	10	9	7	14	#48-48-48-49
32	11	14	7	9	16	#49-48-48-49
33	11	15	8	10	17	#49-48-48-49
34	11	16	9	10	17	#49-48-48-49
35	12	2	11	6	5	#52-3-48-48 does not exist, using 4-3-48-48
36	12	3	11	6	5	#52-3-48-48 does not exist, using 4-3-48-48
37	12	2	11	6	8	#52-3-48-48 does not exist, using 4-3-48-48
38	12	3	11	6	8	#52-3-48-48 does not exist, using 4-3-48-48
39	13	1	13	12	4	#0-0-3-4 (improper)
40	14	2	6	11	3	#0-0-3-52 (improper)
41	15	1	6	5	7	#0-0-48-0 (improper)
42	15	5	8	6	11	#0-0-48-0 (improper)
43	15	5	9	7	14	#0-0-48-0 (improper)
44	15	6	10	8	15	#0-0-48-0 (improper)
45	15	7	10	9	16	#0-0-48-0 (improper)
46	15	8	9	10	17	#0-0-48-0 (improper)

Bond Coeffs				

1	19.5135	1.3640	#20-48
2	9.2798	1.3270	#3-20
3	28.4463	1.2500	#3-52
4	24.7171	1.2290	#3-4
5	20.3374	1.4000	#48-48
6	17.3453	1.4900	#3-48
7	15.9143	1.0800	#48-49
8	13.7462	1.5220	#3-13
9	14.7435	1.0900	#13-46	

Angle Coeffs				

1	3.4691	120.40	#4-3-13
2	3.5124	111.40	#13-3-20
3	3.5992	123.40	#4-3-20
4	3.0354	117.00	#48-3-52
5	3.4691	126.00	#52-3-52
6	1.4310	107.80	#46-13-46
7	1.5177	109.50	#3-13-46
8	3.5992	116.90	#3-20-48
9	2.7319	120.00	#48-48-48
10	3.0354	120.00	#20-48-48
11	3.6859	120.00	#3-48-48
12	1.5177	120.00	#48-48-49

Dihedral Coeffs

1	0.0000	0.0000	0.0000	0.0000	#4-3-13-46
2	0.0000	0.0000	0.0057	0.0000	#20-3-13-46
3	0.0000	0.2168	0.0000	0.0000	#4-3-20-48
4	0.0650	0.2168	0.0000	0.0000	#13-3-20-48
5	0.0000	0.1084	0.0000	0.0000	#3-20-48-48
6	0.0000	0.3144	0.0000	0.0000	#0-48-48-0
7	0.0000	0.3144	0.0000	0.0000	#0-48-48-48
8	0.0000	0.3144	0.0000	0.0000	#0-48-48-49
9	0.0000	0.3144	0.0000	0.0000	#48-48-48-48
10	0.0000	0.3144	0.0000	0.0000	#48-48-48-49
11	0.0000	0.3144	0.0000	0.0000	#49-48-48-49
12	0.0000	0.0911	0.0000	0.0000	#4-3-48-48
13	0.0000	0.9106	0.0000	0.0000	#0-0-3-4 (improper)
14	0.0000	0.9106	0.0000	0.0000	#0-0-3-52 (improper)
15	0.0000	0.2168	0.0000	0.0000	#0-0-48-0 (improper)

