LAMMPS Permethrin data file, created by Amélie Lemay, summer 2021, checked by Jennie		

46 atoms		
48 bonds		
83 angles
136 dihedrals	
#121 proper, 15 improper		

17 atom types	
16 bond types		
25 angle types
33 dihedral types #30 proper, 3 improper		

-20.0 20.0 xlo xhi		
-20.0 20.0 ylo yhi		
-20.0 20.0 zlo zhi		

Masses		

1	35.453
2	12.011
3	12.011
4	12.011
5	12.011
6	12.011
7	12.011
8	15.999
9	15.999
10	12.011
11	12.011
12	12.011
13	15.999
14	1.008
15	1.008
16	1.008
17	1.008					

Atoms						

1	1	1	-0.06	-7.792987296	5.226162237	-0.276271181	#341(21)	"Chloroalkene Cl2-C="
2	1	1	-0.06	-6.694461388	2.915881527	-1.752630739	#341(21)	"Chloroalkene Cl2-C="
3	1	2	0.12	-6.425637206	4.260188156	-0.7077715302	#342(47)	"Chloroalkene Cl2-C="
4	1	3	-0.115	-5.208674401	4.574544574	-0.2409190216	#87(47)	"Alkene RH-C="
5	1	4	-0.06	-3.92406781	3.915571071	-0.5216025546	#653(91)	"Cyclopropane -CHR-"
6	1	4	-0.06	-2.905543233	3.905658121	0.6133878378	#653(91)	"Cyclopropane -CHR-"
7	1	5	0	-3.482781448	2.602184505	0.0949811409	#654(91)	"Cyclopropane -CR2-"
8	1	6	-0.18	-4.415099088	1.846802918	1.014514867	#80(13)	"Alkane CH3-"
9	1	6	-0.18	-2.622586823	1.689733218	-0.7459495762	#80(13)	"Alkane CH3-"
10	1	7	0.51	-1.582502731	4.490397489	0.3025582191	#406(3)	"Ester -COOR"
11	1	8	-0.43	-1.475741138	5.683066167	0.0520263876	#407(4)	"Ester C=O"
12	1	9	-0.33	-0.5601511831	3.600000371	0.3859253792	#408(20)	"Ester CO-O-R"
13	1	10	0.305	0.7009982097	4.221183362	0.120087906	#431(13), charge adjusted	"Et Ester -OCH2R"
14	1	11	-0.115	1.854091676	3.246421182	0.1077741679	#90(48)	"Aromatic C"
15	1	11	-0.115	3.150345285	3.760565807	-0.0713760579	#90(48)	"Aromatic C"
16	1	11	-0.115	1.704861257	1.868019833	0.2517118921	#90(48)	"Aromatic C"
17	1	11	-0.115	2.832888638	1.044264301	0.2736711619	#90(48)	"Aromatic C"
18	1	11	-0.115	4.122390295	1.581562001	0.1399629265	#90(48)	"Aromatic C"
19	1	12	0.085	4.291377754	2.94273432	-0.0749023938	#141(48)	"Anisole C-OCH3"
20	1	13	-0.17	5.43478201	3.655351325	-0.3263526193	#119(20)	"Diphenyl Ether"
21	1	12	0.085	6.72187232	3.220853877	-0.1623453127	#141(48)	"Anisole C-OCH3"
22	1	11	-0.115	7.239120834	1.973197422	-0.4947301162	#90(48)	"Aromatic C"
23	1	11	-0.115	8.61057196	1.719717996	-0.3582371427	#90(48)	"Aromatic C"
24	1	11	-0.115	7.609110103	4.236065952	0.2254921685	#90(48)	"Aromatic C"
25	1	11	-0.115	8.980794838	3.998591051	0.3246974953	#90(48)	"Aromatic C"
26	1	11	-0.115	9.480490033	2.731161093	0.0472388258	#90(48)	"Aromatic C"
27	1	14	0.115	-5.134939322	5.461014913	0.3890434526	#89(46)	"Alkene H-C="
28	1	15	0.06	-3.548469525	4.138427833	-1.519267263	#85(46)	"Alkane H-C"
29	1	15	0.06	-3.249118787	4.216057857	1.596769461	#85(46)	"Alkane H-C"
30	1	15	0.06	-5.023978927	2.510966246	1.636456601	#85(46)	"Alkane H-C"
31	1	15	0.06	-5.093238133	1.212507231	0.433963591	#85(46)	"Alkane H-C"
32	1	15	0.06	-3.840477294	1.201734662	1.687466642	#85(46)	"Alkane H-C"
33	1	15	0.06	-1.929835968	1.130264953	-0.1082481648	#85(46)	"Alkane H-C"
34	1	15	0.06	-3.246169191	0.9676204293	-1.283803766	#85(46)	"Alkane H-C"
35	1	15	0.06	-2.035515552	2.236235874	-1.490985696	#85(46)	"Alkane H-C"
36	1	16	0.03	0.6664257357	4.715754785	-0.8590259616	#127(46)	"Alkyl Ether H-COR"
37	1	16	0.03	0.8933297443	4.962995499	0.9062188601	#127(46)	"Alkyl Ether H-COR"
38	1	17	0.115	3.282714863	4.834006642	-0.2077107432	#91(49)	"Aromatic H-C"
39	1	17	0.115	0.7186934902	1.422747297	0.35886307	#91(49)	"Aromatic H-C"
40	1	17	0.115	2.708576089	-0.0295582	0.3973210869	#91(49)	"Aromatic H-C"
41	1	17	0.115	4.950467529	0.8908368609	0.2045505114	#91(49)	"Aromatic H-C"
42	1	17	0.115	6.620380955	1.188622891	-0.9101493987	#91(49)	"Aromatic H-C"
43	1	17	0.115	9.005421901	0.7359654419	-0.6000828446	#91(49)	"Aromatic H-C"
44	1	17	0.115	9.653997852	4.805277115	0.6024633959	#91(49)	"Aromatic H-C"
45	1	17	0.115	10.54758229	2.538174089	0.1214932868	#91(49)	"Aromatic H-C"
46	1	17	0.115	7.227138784	5.235338706	0.4237227499	#91(49)	"Aromatic H-C"

Bonds						

1	1	2	3	#21-47
2	1	1	3	#21-47
3	2	3	4	#47-47
4	3	4	5	#47-91
5	4	5	6	#91-91
6	4	5	7	#91-91
7	4	6	7	#91-91
8	5	7	8	#13-91
9	5	7	9	#13-91
10	6	6	10	#3-91 does not exist, using #3-13 instead
11	7	10	11	#3-4
12	8	10	12	#3-20
13	9	12	13	#13-20
14	10	13	14	#13-48
15	11	14	15	#48-48
16	11	14	16	#48-48
17	11	16	17	#48-48
18	11	17	18	#48-48
19	11	18	19	#48-48
20	11	15	19	#48-48
21	12	19	20	#20-48
22	12	20	21	#20-48
23	11	21	22	#48-48
24	11	22	23	#48-48
25	11	21	24	#48-48
26	11	24	25	#48-48
27	11	23	26	#48-48
28	11	25	26	#48-48
29	13	4	27	#46-47
30	14	5	28	#46-91
31	14	6	29	#46-91
32	15	8	30	#13-46
33	15	8	31	#13-46
34	15	8	32	#13-46
35	15	9	33	#13-46
36	15	9	34	#13-46
37	15	9	35	#13-46
38	15	13	36	#13-46
39	15	13	37	#13-46
40	16	15	38	#48-49
41	16	16	39	#48-49
42	16	17	40	#48-49
43	16	18	41	#48-49
44	16	22	42	#48-49
45	16	23	43	#48-49
46	16	25	44	#48-49
47	16	26	45	#48-49
48	16	24	46	#48-49

Angles				

1	1	6	10	11	#4-3-91 does not exist, using 4-3-13
2	2	6	10	12	#20-3-91 does not exist, using 13-3-20 
3	3	11	10	12	#4-3-20
4	4	30	8	31	#46-13-46
5	4	30	8	32	#46-13-46
6	4	31	8	32	#46-13-46
7	4	33	9	34	#46-13-46
8	4	33	9	35	#46-13-46
9	4	34	9	35	#46-13-46
10	4	36	13	37	#46-13-46
11	5	10	6	29	#3-91-46 does not exist, using 13-91-46
12	6	12	13	36	#20-13-46
13	6	12	13	37	#20-13-46
14	7	14	13	36	#46-13-48
15	7	14	13	37	#46-13-48
16	8	12	13	14	#20-13-48
17	9	5	6	29	#46-91-91
18	9	7	6	29	#46-91-91
19	10	7	8	30	#46-13-91
20	10	7	8	31	#46-13-91
21	10	7	8	32	#46-13-91
22	10	7	9	33	#46-13-91
23	10	7	9	34	#46-13-91
24	10	7	9	35	#46-13-91
25	11	10	12	13	#3-20-13
26	12	19	20	21	#48-20-48
27	13	3	4	27	#46-47-47
28	14	1	3	4	#21-47-47
29	14	2	3	4	#21-47-47
30	15	5	4	27	#46-47-91
31	16	3	4	5	#47-47-91
32	17	14	15	19	#48-48-48
33	17	17	18	19	#48-48-48
34	17	21	22	23	#48-48-48
35	17	21	24	25	#48-48-48
36	17	14	16	17	#48-48-48
37	17	15	14	16	#48-48-48
38	17	16	17	18	#48-48-48
39	17	22	23	26	#48-48-48
40	17	23	26	25	#48-48-48
41	17	24	25	26	#48-48-48
42	17	15	19	18	#48-48-48
43	17	22	21	24	#48-48-48
44	18	13	14	15	#13-48-48
45	18	13	14	16	#13-48-48
46	19	18	19	20	#20-48-48
47	19	15	19	20	#20-48-48
48	19	20	21	22	#20-48-48
49	19	20	21	24	#20-48-48
50	20	14	15	38	#48-48-49
51	20	14	16	39	#48-48-49
52	20	16	17	40	#48-48-49
53	20	17	16	39	#48-48-49
54	20	17	18	41	#48-48-49
55	20	18	17	40	#48-48-49
56	20	22	23	43	#48-48-49
57	20	23	22	42	#48-48-49
58	20	23	26	45	#48-48-49
59	20	24	25	44	#48-48-49
60	20	25	24	46	#48-48-49
61	20	25	26	45	#48-48-49
62	20	26	23	43	#48-48-49
63	20	26	25	44	#48-48-49
64	20	19	18	41	#48-48-49
65	20	19	15	38	#48-48-49
66	20	21	22	42	#48-48-49
67	20	21	24	46	#48-48-49
68	9	6	5	28	#46-91-91
69	21	4	5	28	#46-91-47
70	22	6	5	7	#91-91-91
71	22	5	7	6	#91-91-91
72	25	5	7	8	#13-91-91
73	25	5	7	9	#13-91-91
74	9	7	5	28	#46-91-91
75	23	4	5	7	#47-91-91
76	24	1	3	2	#21-47-21 does not exist, using 21-13-21
77	23	4	5	6	#47-91-91
78	22	5	6	7	#91-91-91
79	23	5	6	10	#3-91-91 does not exist, using 47-91-91
80	23	7	6	10	#3-91-91 does not exist, using 47-91-91
81	25	8	7	6	#13-91-91
82	25	6	7	9	#13-91-91
83	25	8	7	9	#13-91-13 does not exist, using 13-91-91

Dihedrals

1	19	5	6	10	11	#4-3-91-91 does not exist, use 4-3-13-13
2	19	7	6	10	11	#4-3-91-91 does not exist, use 4-3-13-13
3	20	11	10	6	29	#4-3-91-46 does not exist, using 4-3-13-46
4	21	12	10	6	29	#20-3-91-46 does not exist, using 20-3-13-46
5	1	11	10	12	13	#4-3-20-13
6	22	6	10	12	13	#91-3-20-13 does not exist, using 13-3-20-13
7	2	10	12	13	36	#46-13-20-3
8	2	10	12	13	37	#46-13-20-3
9	3	12	13	14	15	#0-13-48-48
10	3	12	13	14	16	#0-13-48-48
11	4	15	14	13	36	#46-13-48-48
12	4	16	14	13	36	#46-13-48-48
13	4	15	14	13	37	#46-13-48-48
14	4	16	14	13	37	#46-13-48-48
15	17	7	5	6	29	#46-91-91-91
16	17	5	7	6	29	#46-91-91-91
17	5	5	7	8	30	#46-13-91-91
18	5	5	7	8	31	#46-13-91-91
19	5	5	7	8	32	#46-13-91-91
20	5	5	7	9	33	#46-13-91-91
21	5	5	7	9	34	#46-13-91-91
22	5	5	7	9	35	#46-13-91-91
23	6	1	3	4	5	#0-47-47-0
24	6	2	3	4	5	#0-47-47-0
25	7	1	3	4	27	#21-47-47-46
26	7	2	3	4	27	#21-47-47-46
27	8	17	18	19	20	#0-48-48-48
28	8	14	15	19	20	#0-48-48-48
29	8	20	21	22	23	#0-48-48-48
30	8	20	21	24	25	#0-48-48-48
31	9	20	19	18	41	#0-48-48-49
32	9	20	19	15	38	#0-48-48-49
33	9	20	21	22	42	#0-48-48-49
34	9	20	21	24	46	#0-48-48-49
35	10	13	14	15	19	#13-48-48-48
36	10	13	14	16	17	#13-48-48-48
37	11	13	14	15	38	#13-48-48-49
38	11	13	14	16	39	#13-48-48-49
39	12	14	15	19	18	#48-48-48-48
40	12	15	19	18	17	#48-48-48-48
41	12	23	22	21	24	#48-48-48-48
42	12	22	21	24	25	#48-48-48-48
43	12	14	16	17	18	#48-48-48-48
44	12	15	14	16	17	#48-48-48-48
45	12	22	23	26	25	#48-48-48-48
46	12	23	26	25	24	#48-48-48-48
47	12	16	14	15	19	#48-48-48-48
48	12	16	17	18	19	#48-48-48-48
49	12	21	22	23	26	#48-48-48-48
50	12	21	24	25	26	#48-48-48-48
51	13	14	16	17	40	#48-48-48-49
52	13	15	14	16	39	#48-48-48-49
53	13	16	14	15	38	#48-48-48-49
54	13	16	17	18	41	#48-48-48-49
55	13	18	17	16	39	#48-48-48-49
56	13	22	23	26	45	#48-48-48-49
57	13	23	26	25	44	#48-48-48-49
58	13	24	25	26	45	#48-48-48-49
59	13	25	26	23	43	#48-48-48-49
60	13	26	23	22	42	#48-48-48-49
61	13	26	25	24	46	#48-48-48-49
62	13	15	19	18	41	#48-48-48-49
63	13	18	19	15	38	#48-48-48-49
64	13	22	21	24	46	#48-48-48-49
65	13	24	21	22	42	#48-48-48-49
66	13	19	18	17	40	#48-48-48-49
67	13	21	22	23	43	#48-48-48-49
68	13	21	24	25	44	#48-48-48-49
69	14	39	16	17	40	#49-48-48-49
70	14	40	17	18	41	#49-48-48-49
71	14	42	22	23	43	#49-48-48-49
72	14	43	23	26	45	#49-48-48-49
73	14	44	25	24	46	#49-48-48-49
74	14	44	25	26	45	#49-48-48-49
75	15	4	5	7	6	#0-91-91-0
76	15	4	5	7	8	#0-91-91-0
77	15	4	5	7	9	#0-91-91-0
78	15	6	5	7	8	#0-91-91-0
79	15	6	5	7	9	#0-91-91-0
80	17	6	7	5	28	#46-91-91-91
81	16	8	7	5	28	#13-91-91-46
82	16	9	7	5	28	#13-91-91-46
83	23	3	4	5	6	#47-47-91-91 does not exist, using 13-13-47-47
84	23	3	4	5	7	#47-47-91-91 does not exist, using 13-13-47-47
85	24	3	4	5	28	#47-47-91-46 does not exist, using 46-13-47-47
86	33	6	5	4	27	#46-47-91-91 does not exist, using 0-13-47-46
87	33	7	5	4	27	#46-47-91-91 does not exist, using 0-13-47-46
88	25	27	4	5	28	#46-47-91-46 does not exist, using 46-13-47-46
89	15	4	5	6	7	#0-91-91-0
90	15	4	5	6	10	#0-91-91-0
91	15	4	5	6	29	#0-91-91-0
92	15	7	5	6	10	#0-91-91-0
93	15	7	6	5	28	#0-91-91-0
94	15	10	6	5	28	#0-91-91-0
95	18	28	5	6	29	#46-91-91-46
96	15	5	6	7	8	#0-91-91-0
97	15	5	6	7	9	#0-91-91-0
98	15	5	7	6	10	#0-91-91-0
99	15	8	7	6	10	#0-91-91-0
100	15	9	7	6	10	#0-91-91-0
101	16	8	7	6	29	#13-91-91-46
102	16	9	7	6	29	#13-91-91-46
103	5	6	7	8	30	#46-13-91-91
104	5	6	7	8	31	#46-13-91-91
105	5	6	7	8	32	#46-13-91-91
106	26	9	7	8	30	#46-13-91-13 does not exist, using 13-13-13-46
107	26	9	7	8	31	#46-13-91-13 does not exist, using 13-13-13-46
108	26	9	7	8	32	#46-13-91-13 does not exist, using 13-13-13-46
109	5	6	7	9	33	#46-13-91-91
110	5	6	7	9	34	#46-13-91-91
111	5	6	7	9	35	#46-13-91-91
112	26	8	7	9	33	#46-13-91-13 does not exist, using 13-13-13-46
113	26	8	7	9	34	#46-13-91-13 does not exist, using 13-13-13-46
114	26	8	7	9	35	#46-13-91-13 does not exist, using 13-13-13-46
115	32	5	6	10	12	#20-3-91-91 does not exist, using 20-3-13-13
116	32	7	6	10	12	#20-3-91-91 does not exist, using 20-3-13-13
117	27	10	12	13	14	#3-20-13-48 does not exist, using #13-13-20-3
118	28	18	19	20	21	#48-20-48-48 does not exist, using #13-20-48-48
119	28	15	19	20	21	#48-20-48-48 does not exist, using #13-20-48-48
120	28	19	20	21	22	#48-20-48-48 does not exist, using #13-20-48-48
121	28	19	20	21	24	#48-20-48-48 does not exist, using #13-20-48-48
122	29	6	12	10	11	#0-0-3-4 (improper)
123	30	1	2	3	4	#0-0-47-0 (improper)
124	30	3	5	4	27	#0-0-47-0 (improper)
125	31	13	15	14	16	#0-0-48-0 (improper)
126	31	14	19	15	38	#0-0-48-0 (improper)
127	31	17	19	18	41	#0-0-48-0 (improper)
128	31	23	21	22	42	#0-0-48-0 (improper)
129	31	25	21	24	46	#0-0-48-0 (improper)
130	31	14	17	16	39	#0-0-48-0 (improper)
131	31	16	18	17	40	#0-0-48-0 (improper)
132	31	22	26	23	43	#0-0-48-0 (improper)
133	31	23	25	26	45	#0-0-48-0 (improper)
134	31	24	26	25	44	#0-0-48-0 (improper)
135	31	18	15	19	20	#0-0-48-0 (improper)
136	31	20	24	21	22	#0-0-48-0 (improper)

Bond Coeffs				

1	13.00897619	1.725	#21-47
2	23.80642643	1.34	#47-47
3	13.74615151	1.51	#47-91
4	11.27444603	1.52	#91-91
5	12.14171111	1.51	#13-91
6	13.74615151	1.522	#3-13
7	24.71705477	1.229	#3-4
8	9.279736351	1.327	#3-20
9	13.87624127	1.41	#13-20
10	13.74615151	1.51	#13-48
11	20.33736612	1.4	#48-48
12	19.51346429	1.364	#20-48
13	14.74350635	1.08	#46-47
14	14.74350635	1.088	#46-91
15	14.74350635	1.09	#13-46
16	15.91431421	1.08	#48-49

Angle Coeffs				

1	3.469066335	120.4	#4-3-13
2	3.512429665	111.4	#13-3-20
3	3.599156323	123.4	#4-3-20
4	1.430989863	107.8	#46-13-46
5	1.517716522	114.3	#13-91-46
6	1.517716522	109.5	#20-13-46
7	1.517716522	109.5	#46-13-48
8	2.16816646	109.5	#20-13-48
9	1.626124845	117.2	#46-91-91
10	1.626124845	110.7	#46-13-91
11	3.599156323	116.9	#3-20-13
12	3.25224969	111	#48-20-48
13	1.517716522	120	#46-47-47
14	3.25224969	121.5	#21-47-47
15	1.517716522	135	#46-47-91
16	3.035433044	124	#47-47-91
17	2.731889739	120	#48-48-48
18	3.035433044	120	#13-48-48
19	3.035433044	120	#20-48-48
20	1.517716522	120	#48-48-49
21	1.517716522	109.5	#46-91-47
22	1.300899876	79.2	#91-91-91
23	2.731889739	114	#47-91-91
24	3.382339677	111.7	#21-13-21
25	1.626124845	117.2	#13-91-91

Dihedral Coeffs

1	0	0	0	0	#4-3-20-13
2	0	0	0.00858593918	0	#46-13-20-3
3	0	0	0	0	#0-13-48-48
4	0	0	0	0	#46-13-48-48
5	0	0	0.01300899876	0	#46-13-91-91
6	0	0.6070866087	0	0	#0-47-47-0
7	0	0.6070866087	0	0	#21-47-47-46
8	0	0.3143841367	0	0	#0-48-48-48
9	0	0.3143841367	0	0	#0-48-48-49
10	0	0.3143841367	0	0	#13-48-48-48
11	0	0.3143841367	0	0	#13-48-48-49
12	0	0.3143841367	0	0	#48-48-48-48
13	0	0.3143841367	0	0	#48-48-48-49
14	0	0.3143841367	0	0	#49-48-48-49
15	0	0	0	0	#0-91-91-0
16	0	0	0	0	#13-91-91-46
17	0	0	0	0	#46-91-91-91
18	0	0	0	0	#46-91-91-46
19	0	0	0	0	#4-3-13-13
20	0	0	0	0	#4-3-13-46
21	0	0	0.005723959454	0	#20-3-13-46
22	0.202463384	0.2221936988	0	0	#13-3-20-13
23	0.0150037119	0.01756214832	-0.03920044959	0	#13-13-47-47
24	0	0	-0.01613115846	0	#46-13-47-47
25	0	0	0.01378953868	0	#46-13-47-46
26	0	0	0.01300899876	0	#13-13-13-46
27	-0.05290326162	-0.005463779478	0.01829932492	0	#13-13-20-3
28	0	0.1300899876	0	0	#13-20-48-48
29	0	0.9106299131	0	0	#0-0-3-4 (improper)
30	0	1.300899876	0	0	#0-0-47-0 (improper)
31	0	0.216816646	0	0	#0-0-48-0 (improper)
32	0	0	-0.02397992104	0	#20-3-13-13
33	0	0	0.02029403806	0	#0-13-47-46

