LAAMPS one Benzo(a)pyrene Molecule  #created by Ryan Neapole, July 2021; checked by Ian

32 atoms
36 bonds
60 angles
116 dihedrals

3 atom types
2 bond types
2 angle types
4 dihedral types

-12.0 12.0 xlo xhi
-10.0 10.0 ylo yhi
-10.0 10.0 zlo zhi

Masses

1 12.011 	#C OLPS 92
2 12.011 	#C OLPS 90
3 1.00782 	#H OLPS 91

Atoms

1	1	1	0.0	0.3029	-0.2099	0	#OPLS atom type 92(48)	
2	1	1	0.0	1.7016	0.055	0.0001	#OPLS atom type 92(48)
3	1	1	0.0	-0.6423	0.8505	0.0001	#OPLS atom type 92(48)
4	1	1	0.0	-0.1359	-1.5515	0	#OPLS atom type 92(48)
5	1	1	0.0	-2.0482	0.5463	0	#OPLS atom type 92(48)
6	1	1	0.0	2.1726	1.3855	0	#OPLS atom type 92(48)
7	1	1	0.0	2.6351	-1.0102	0	#OPLS atom type 92(48)
8	1	1	0.0	-2.4605	-0.8094	0	#OPLS atom type 92(48)
9	1	2	-0.115	-1.5052	-1.831	0	#OPLS atom type 90(48)
10	1	2	-0.115	-0.1243	2.1658	0.0002	#OPLS atom type 90(48)
11	1	2	-0.115	0.801	-2.5939	0.0001	#OPLS atom type 90(48)
12	1	2	-0.115	1.248	2.4294	0.0002	#OPLS atom type 90(48)
13	1	2	-0.115	2.1687	-2.3278	0	#OPLS atom type 90(48)
14	1	2	-0.115	3.5527	1.6377	-0.0001	#OPLS atom type 90(48)
15	1	2	-0.115	4.0095	-0.7305	-0.0001	#OPLS atom type 90(48)
16	1	2	-0.115	-3.0763	1.5235	-0.0001	#OPLS atom type 90(48)
17	1	2	-0.115	-3.8267	-1.1413	0.0001	#OPLS atom type 90(48)
18	1	2	-0.115	4.4645	0.5854	-0.0001	#OPLS atom type 90(48)
19	1	2	-0.115	-4.4309	1.1802	-0.0002	#OPLS atom type 90(48)
20	1	2	-0.115	-4.8064	-0.1536	0	#OPLS atom type 90(48)
21	1	3	0.115	-1.8352	-2.8706	0.0001	#OPLS atom type 91(49)
22	1	3	0.115	-0.7834	3.0302	0.0002	#OPLS atom type 91(49)
23	1	3	0.115	0.4741	-3.6322	0.0001	#OPLS atom type 91(49)
24	1	3	0.115	1.5801	3.4656	0.0002	#OPLS atom type 91(49)
25	1	3	0.115	2.8649	-3.1639	-0.0001	#OPLS atom type 91(49)
26	1	3	0.115	3.9298	2.6582	-0.0002	#OPLS atom type 91(49)
27	1	3	0.115	4.7396	-1.5373	-0.0002	#OPLS atom type 91(49)
28	1	3	0.115	-2.8431	2.5851	-0.0002	#OPLS atom type 91(49)
29	1	3	0.115	-4.1425	-2.1832	0.0001	#OPLS atom type 91(49)
30	1	3	0.115	5.531	0.7911	-0.0001	#OPLS atom type 91(49)
31	1	3	0.115	-5.1874	1.9595	-0.0004	#OPLS atom type 91(49)
32	1	3	0.115	-5.8571	-0.4267	0	#OPLS atom type 91(49)

Bonds

1	1	1	2
2	1	1	3
3	1	1	4
4	1	2	6
5	1	2	7
6	1	3	5
7	1	3	10
8	1	4	9
9	1	4	11
10	1	5	8
11	1	5	16
12	1	6	12
13	1	6	14
14	1	7	13
15	1	7	15
16	1	8	9
17	1	8	17
18	2	9	21
19	1	10	12
20	2	10	22
21	1	11	13
22	2	11	23
23	2	12	24
24	2	13	25
25	1	14	18
26	2	14	26
27	1	15	18
28	2	15	27
29	1	16	19
30	2	16	28
31	1	17	20
32	2	17	29
33	2	18	30
34	1	19	20
35	2	19	31
36	2	20	32

Angles

1	1	2	1	3
2	1	2	1	4
3	1	3	1	4
4	1	1	2	6
5	1	1	2	7
6	1	6	2	7
7	1	1	3	5
8	1	1	3	10
9	1	5	3	10
10	1	1	4	9
11	1	1	4	11
12	1	9	4	11
13	1	3	5	8
14	1	3	5	16
15	1	8	5	16
16	1	2	6	12
17	1	2	6	14
18	1	12	6	14
19	1	2	7	13
20	1	2	7	15
21	1	13	7	15
22	1	5	8	9
23	1	5	8	17
24	1	9	8	17
25	1	4	9	8
26	2	4	9	21
27	2	8	9	21
28	1	3	10	12
29	2	3	10	22
30	2	12	10	22
31	1	4	11	13
32	2	4	11	23
33	2	13	11	23
34	1	6	12	10
35	2	6	12	24
36	2	10	12	24
37	1	7	13	11
38	2	7	13	25
39	2	11	13	25
40	1	6	14	18
41	2	6	14	26
42	2	18	14	26
43	1	7	15	18
44	2	7	15	27
45	2	18	15	27
46	1	5	16	19
47	2	5	16	28
48	2	19	16	28
49	1	8	17	20
50	2	8	17	29
51	2	20	17	29
52	1	14	18	15
53	2	14	18	30
54	2	15	18	30
55	1	16	19	20
56	2	16	19	31
57	2	20	19	31
58	1	17	20	19
59	2	17	20	32
60	2	19	20	32

Dihedrals

1	1	3	1	2	6
2	1	3	1	2	7
3	1	4	1	2	6
4	1	4	1	2	7
5	1	2	1	3	5
6	1	2	1	3	10
7	1	4	1	3	5
8	1	4	1	3	10
9	1	2	1	4	9
10	1	2	1	4	11
11	1	3	1	4	9
12	1	3	1	4	11
13	1	1	2	6	12
14	1	1	2	6	14
15	1	7	2	6	12
16	1	7	2	6	14
17	1	1	2	7	13
18	1	1	2	7	15
19	1	6	2	7	13
20	1	6	2	7	15
21	1	1	3	5	8
22	1	1	3	5	16
23	1	10	3	5	8
24	1	10	3	5	16
25	1	1	3	10	12
26	2	1	3	10	22
27	1	5	3	10	12
28	2	5	3	10	22
29	1	1	4	9	8
30	2	1	4	9	21
31	1	11	4	9	8
32	2	11	4	9	21
33	1	1	4	11	13
34	2	1	4	11	23
35	1	9	4	11	13
36	2	9	4	11	23
37	1	3	5	8	9
38	1	3	5	8	17
39	1	16	5	8	9
40	1	16	5	8	17
41	1	3	5	16	19
42	2	3	5	16	28
43	1	8	5	16	19
44	2	8	5	16	28
45	1	2	6	12	10
46	2	2	6	12	24
47	1	14	6	12	10
48	2	14	6	12	24
49	1	2	6	14	18
50	2	2	6	14	26
51	1	12	6	14	18
52	2	12	6	14	26
53	1	2	7	13	11
54	2	2	7	13	25
55	1	15	7	13	11
56	2	15	7	13	25
57	1	2	7	15	18
58	2	2	7	15	27
59	1	13	7	15	18
60	2	13	7	15	27
61	1	5	8	9	4
62	2	5	8	9	21
63	1	17	8	9	4
64	2	17	8	9	21
65	1	5	8	17	20
66	2	5	8	17	29
67	1	9	8	17	20
68	2	9	8	17	29
69	1	3	10	12	6
70	2	3	10	12	24
71	2	22	10	12	6
72	3	22	10	12	24
73	1	4	11	13	7
74	2	4	11	13	25
75	2	23	11	13	7
76	3	23	11	13	25
77	1	6	14	18	15
78	2	6	14	18	30
79	2	26	14	18	15
80	3	26	14	18	30
81	1	7	15	18	14
82	2	7	15	18	30
83	2	27	15	18	14
84	3	27	15	18	30
85	1	5	16	19	20
86	2	5	16	19	31
87	2	28	16	19	20
88	3	28	16	19	31
89	1	8	17	20	19
90	2	8	17	20	32
91	2	29	17	20	19
92	3	29	17	20	32
93	1	16	19	20	17
94	2	16	19	20	32
95	2	31	19	20	17
96	3	31	19	20	32
97	4	2	3	1	4
98	4	7	6	2	1
99	4	1	5	3	10
100	4	1	11	4	9
101	4	3	8	5	16
102	4	14	12	6	2
103	4	15	2	7	13
104	4	9	5	8	17
105	4	4	21	9	8
106	4	12	22	10	3
107	4	13	23	11	4
108	4	24	6	12	10
109	4	25	7	13	11
110	4	26	18	14	6
111	4	27	18	15	7
112	4	5	28	16	19
113	4	8	20	17	29
114	4	30	15	18	14
115	4	31	16	19	20
116	4	17	19	20	32

Bond Coeffs

1	20.3374	1.4000	#OPLS bond type 48-48
2	15.9143	1.0800	#OPLS bond type 48-49

Angle Coeffs

1	2.7319	120.00	#OPLS angle type 48-48-48
2	1.5177	120.00	#OPLS angle type 48-48-49

Dihedral Coeffs

1	0.0	0.3144	0.0	0.0	#OPLS Dihedral type 48-48-48-48
2	0.0	0.3144	0.0	0.0	#OPLS Dihedral type 48-48-48-49
3	0.0	0.3144	0.0	0.0	#OPLS Dihedral type 49-48-48-49
4	0.0	0.2168	0.0	0.0	#OPLS Dihedral type 0-0-48-0 (improper dihedral)
