LAMMPS Butylparaben data file	#created by Raneem Mohammed, May 2020; checked by Ian Bourg	

28 atoms		
28 bonds		
47 angles
69 dihedrals
		

13 atom types	
10 bond types		
14 angle types
21 dihedral types
		

-10.0  10.0 xlo xhi		
-10.0  10.0 ylo yhi		
-10.0  10.0 zlo zhi		

Masses		
					
1	1.008	#85(46)
2	1.008	#410(46)
3	12.011	#80(13)
4	12.011	#81(13)
5	12.011	#431(13)
6	15.999	#408(20)
7	15.999	#407(4)
8	12.011	#412(3)
9	1.008	#91(49)
10	15.999	#109(5)
11	1.008	#110(7)
12	12.011	#90(48)
13	12.011	#108(48)

Atoms
						
1	1	1	0.06	6.9483	-1.0105	0.2545	#85(46)
2	1	1	0.06	5.7288	-1.7969	1.2716	#85(46)
3	1	1	0.06	5.7663	-2.1112	-0.4747	#85(46)
4	1	1	0.06	5.196	0.2881	-0.9124	#85(46)
5	1	1	0.06	5.1579	0.5961	0.825	#85(46)
6	1	1	0.06	3.285	-1.0874	1.0599	#85(46)
7	1	1	0.06	3.3093	-1.3493	-0.6709	#85(46)
8	1	2	0.03	2.7441	1.0518	-1.0612	#410(46)
9	1	2	0.03	2.7342	1.3266	0.7037	#410(46)
10	1	3	-0.18	5.9059	-1.3421	0.2916	#80(13)
11	1	4	-0.12	4.9708	-0.1661	0.0596	#81(13)
12	1	4	-0.12	3.5078	-0.5976	0.1035	#81(13)
13	1	5	0.19	2.5672	0.584	-0.0855	#431(13)
14	1	6	-0.33	1.2263	0.1186	-0.0194	#408(20)
15	1	7	-0.43	0.4404	2.2559	-0.3568	#407(4)
16	1	8	0.625	0.2565	1.0629	-0.1714	#412(3)
17	1	9	0.115	-0.4485	-1.4532	-0.8882	#91(49)
18	1	9	0.115	-2.673	-2.4575	-0.7282	#91(49)
19	1	9	0.115	-1.9955	2.2369	0.731	#91(49)
20	1	9	0.115	-4.2365	1.2217	0.8769	#91(49)
21	1	10	-0.585	-4.8411	-1.2431	0.1669	#109(5)
22	1	11	0.435	-4.7946	-2.1594	-0.1561	#110(7)
23	1	12	-0.115	-1.263	-0.8559	-0.4896	#90(48)
24	1	12	-0.115	-2.5316	-1.4296	-0.4051	#90(48)
25	1	13	0.15	-3.603	-0.6838	0.0862	#108(48)
26	1	12	-0.115	-3.4057	0.6359	0.4929	#90(48)
27	1	12	-0.115	-2.1371	1.2097	0.4083	#90(48)
28	1	12	-0.115	-1.0933	0.4513	-0.0811	#90(48)

Bonds						

1	1	1	10	#46-13
2	1	2	10	#46-13
3	1	3	10	#46-13
4	2	10	11	#13-13
5	1	4	11	#46-13
6	1	5	11	#46-13
7	2	11	12	#13-13
8	1	6	12	#46-13
9	1	7	12	#46-13
10	2	12	13	#13-13
11	1	8	13	#46-13
12	1	9	13	#46-13
13	3	13	14	#13-20
14	4	14	16	#20-3
15	5	15	16	#4-3
16	6	16	28	#3-48
17	7	23	28	#48-48
18	7	23	24	#48-48
19	7	24	25	#48-48
20	7	25	26	#48-48
21	7	26	27	#48-48
22	7	27	28	#48-48
23	8	19	27	#49-48
24	8	20	26	#49-48
25	8	18	24	#49-48
26	8	17	23	#49-48
27	9	21	25	#5-48
28	10	21	22	#5-7

Angles				

1	1	1	10	2	#46-13-46
2	1	1	10	3	#46-13-46
3	2	1	10	11	#46-13-13
4	1	2	10	3	#46-13-46
5	2	2	10	11	#46-13-13
6	2	3	10	11	#46-13-13
7	2	4	11	10	#46-13-13
8	1	4	11	5	#46-13-46
9	2	4	11	12	#46-13-13
10	2	5	11	12	#46-13-13
11	2	5	11	10	#46-13-13
12	3	10	11	12	#13-13-13
13	2	11	12	6	#13-13-46
14	2	11	12	7	#13-13-46
15	3	11	12	13	#13-13-13
16	1	6	12	7	#46-13-46
17	2	6	12	13	#46-13-13
18	2	7	12	13	#46-13-13
19	2	12	13	8	#13-13-46
20	2	12	13	9	#13-13-46
21	4	12	13	14	#13-13-20
22	1	8	13	9	#46-13-46
23	5	8	13	14	#46-13-20
24	5	9	13	14	#46-13-20
25	6	13	14	16	#13-20-3
26	7	14	16	15	#20-3-4
27	8	14	16	28	#20-3-48
28	9	15	16	28	#4-3-48
29	10	16	28	27	#3-48-48
30	10	16	28	23	#3-48-48
31	11	23	28	27	#48-48-48
32	12	28	27	19	#48-48-49
33	11	28	27	26	#48-48-48
34	12	26	27	19	#48-48-49
35	12	27	26	20	#48-48-49
36	11	27	26	25	#48-48-48
37	13	26	25	21	#48-48-5
38	11	26	25	24	#48-48-48
39	13	24	25	21	#48-48-5
40	12	25	24	18	#48-48-49
41	11	25	24	23	#48-48-48
42	12	23	24	18	#48-48-49
43	12	24	23	17	#48-48-49
44	11	24	23	28	#48-48-48
45	12	28	23	17	#48-48-49
46	14	22	21	25	#7-5-48
47	12	25	26	20	#48-48-49

Dihedrals

1	1	1	10	11	4	#46-13-13-46
2	1	1	10	11	5	#46-13-13-46
3	2	1	10	11	12	#46-13-13-13
4	1	2	10	11	4	#46-13-13-46
5	1	2	10	11	5	#46-13-13-46
6	2	2	10	11	12	#46-13-13-13
7	1	3	10	11	4	#46-13-13-46
8	1	3	10	11	5	#46-13-13-46
9	2	3	10	11	12	#46-13-13-13
10	2	10	11	12	6	#13-13-13-46
11	2	10	11	12	7	#13-13-13-46
12	3	10	11	12	13	#13-13-13-13
13	1	4	11	12	6	#46-13-13-46
14	1	4	11	12	7	#46-13-13-46
15	2	4	11	12	13	#46-13-13-13
16	1	5	11	12	6	#46-13-13-46
17	1	5	11	12	7	#46-13-13-46
18	2	5	11	12	13	#46-13-13-13
19	2	11	12	13	8	#13-13-13-46
20	2	11	12	13	9	#13-13-13-46
21	4	11	12	13	14	#13-13-13-20
22	1	6	12	13	8	#46-13-13-46
23	1	6	12	13	9	#46-13-13-46
24	1	7	12	13	8	#46-13-13-46
25	1	7	12	13	9	#46-13-13-46
26	5	12	13	14	16	#13-13-20-3
27	6	8	13	14	16	#46-13-20-3
28	6	9	13	14	16	#46-13-20-3
29	7	13	14	16	15	#13-20-3-4
30	8	13	14	16	28	#13-20-3-48
31	9	14	16	28	23	#20-3-48-48
32	10	6	12	13	14	#46-13-13-20
33	10	7	12	13	14	#46-13-13-20
34	9	14	16	28	27	#20-3-48-48
35	11	15	16	28	27	#4-3-48-48
36	11	15	16	28	23	#4-3-48-48
37	12	16	28	27	19	#3-48-48-49
38	13	16	28	27	26	#3-48-48-48
39	12	16	28	23	17	#3-48-48-49
40	13	16	28	23	24	#3-48-48-48
41	14	28	27	26	20	#48-48-48-49
42	15	28	27	26	25	#48-48-48-48
43	14	28	23	24	18	#48-48-48-49
44	15	28	23	24	25	#48-48-48-48
45	15	27	26	25	24	#48-48-48-48
46	16	27	26	25	21	#48-48-48-5
47	14	27	28	23	17	#48-48-48-49
48	15	27	28	23	24	#48-48-48-48
49	17	26	25	21	22	#48-48-5-7
50	14	26	25	24	18	#48-48-48-49
51	15	26	25	24	23	#48-48-48-48
52	15	26	27	28	23	#48-48-48-48
53	18	20	26	25	21	#49-48-48-5
54	14	20	26	25	24	#49-48-48-48
55	14	19	27	26	25	#49-48-48-48
56	14	25	24	23	17	#48-48-48-49
57	17	24	25	21	22	#48-48-5-7
58	19	18	24	23	17	#49-48-48-49
59	18	18	24	25	21	#49-48-48-5
60	14	19	27	28	23	#49-48-48-48
61	19	20	26	27	19	#49-48-48-49
62	16	23	24	25	21	#48-48-48-5
63	20	24	26	25	21	#0-0-48-0
64	20	25	27	26	20	#0-0-48-0
65	20	26	28	27	19	#0-0-48-0
66	20	27	23	28	16	#0-0-48-0
67	20	28	24	23	17	#0-0-48-0
68	20	23	25	24	18	#0-0-48-0
69	21	28	14	16	15	#0-0-3-4

Bond Coeffs				

1	14.7435	1.0900	#13-46
2	11.6214	1.5290	#13-13
3	13.8763	1.4100	#13-20
4	9.2798	1.3270	#3-20
5	24.7171	1.2290	#3-4
6	17.3453	1.4900	#3-48
7	20.3374	1.4000	#48-48
8	15.9143	1.0800	#48-49
9	19.5135	1.3640	#5-48
10	23.9799	0.9450	#5-7

Angle Coeffs				

1	1.4310	107.80	#46-13-46
2	1.6261	110.70	#13-13-46
3	2.5303	112.70	#13-13-13
4	2.1682	109.50	#13-13-20
5	1.5177	109.50	#20-13-46
6	3.5992	116.90	#3-20-13
7	3.5992	123.40	#4-3-20
8	3.5124	111.40	#20-3-48
9	3.4691	120.40	#4-3-48
10	3.6859	120.00	#3-48-48
11	2.7319	120.00	#48-48-48
12	1.5177	120.00	#48-48-49
13	3.0354	120.00	#5-48-48
14	1.5177	113.00	#7-5-48

Dihedral Coeffs

1	0.0000	0.0000	0.0130	0.0000	#46-13-13-46
2	0.0000	0.0000	0.0130	0.0000	#13-13-13-46
3	0.0564	-0.0022	0.0087	0.0000	#13-13-13-13
4	0.0742	-0.0217	0.0287	0.0000	#13-13-13-20 (doesn't exist; using 0-13-13-13)
5	-0.0529	-0.0055	0.0183	0.0000	#13-13-20-3
6	0.0000	0.0000	0.0086	0.0000	#46-13-20-3
7	0.0000	0.2168	0.0000	0.0000	#4-3-20-13 (alternative parameters for benzoic esters)
8	0.1735	0.2168	0.0000	0.0000	#48-3-20-13
9	0.0000	0.0911	0.0000	0.0000	#20-3-48-48
10	0.0000	0.0000	0.0203	0.0000	#20-13-13-46
11	0.0000	0.0911	0.0000	0.0000	#4-3-48-48
12	0.0000	0.3144	0.0000	0.0000	#3-48-48-49 (doesn't exist; using 0-48-48-49)
13	0.0000	0.3144	0.0000	0.0000	#3-48-48-48 (doesn't exist; using 0-48-48-48)
14	0.0000	0.3144	0.0000	0.0000	#48-48-48-49
15	0.0000	0.3144	0.0000	0.0000	#48-48-48-48
16	0.0000	0.3144	0.0000	0.0000	#5-48-48-48 (doesn't exist; using 0-48-48-48)
17	0.0000	0.0729	0.0000	0.0000	#7-5-48-48
18	0.0000	0.3144	0.0000	0.0000	#5-48-48-49 (doesn't exist; using 0-48-48-49)
19	0.0000	0.3144	0.0000	0.0000	#49-48-48-49
20	0.0000	0.2168	0.0000	0	#0-0-48-0 (improper)
21	0.0000	0.9106	0.0000	0	#0-0-3-4 (improper)

