LAMMPS Benzene data file	#created by Morgan Wiese, June 2021; checked by Ian						
							
12 atoms							
12 bonds							
18 angles							
30 dihedrals							
							
2 atom types							
2 bond types							
2 angle types							
4 dihedral types							
							
-10 10 xlo xhi				
-10 10 ylo yhi				
-10 10 zlo zhi				
							
Masses							
							
1	12.011						
2	1.008						
							
Atoms							
							
1	1	1	-0.115	-2.1841	-0.0001	-0.2303	#90(48)
2	1	1	-0.115	-1.4987	1.2079	-0.1017	#90(48)
3	1	1	-0.115	-0.1277	1.2081	0.1555	#90(48)
4	1	1	-0.115	0.5579	0.0001	0.2841	#90(48)
5	1	1	-0.115	-0.1275	-1.2079	0.1556	#90(48)
6	1	1	-0.115	-1.4985	-1.208	-0.1016	#90(48)
7	1	2	0.115	-3.2515	-0.0003	-0.4308	#91(49)
8	1	2	0.115	-2.0324	2.1484	-0.2024	#91(49)
9	1	2	0.115	0.3951	2.156	0.2518	#91(49)
10	1	2	0.115	1.6237	0.0001	0.5593	#91(49)
11	1	2	0.115	0.3953	-2.1558	0.2519	#91(49)
12	1	2	0.115	-2.0322	-2.1486	-0.2023	#91(49)
							
Bonds							
							
1	1	1	2	#48-48			
2	1	2	3	#48-48			
3	1	3	4	#48-48			
4	1	4	5	#48-48			
5	1	5	6	#48-48			
6	1	6	1	#48-48			
7	2	1	7	#48-49			
8	2	2	8	#48-49			
9	2	3	9	#48-49			
10	2	4	10	#48-49			
11	2	5	11	#48-49			
12	2	6	12	#48-49			
							
Angles							
							
1	1	1	2	3	#48-48-48		
2	1	2	3	4	#48-48-48		
3	1	3	4	5	#48-48-48		
4	1	4	5	6	#48-48-48		
5	1	5	6	1	#48-48-48		
6	1	6	1	2	#48-48-48		
7	2	1	2	8	#48-48-49		
8	2	8	2	3	#48-48-49		
9	2	2	3	9	#48-48-49		
10	2	9	3	4	#48-48-49		
11	2	3	4	10	#48-48-49		
12	2	10	4	5	#48-48-49		
13	2	4	5	11	#48-48-49		
14	2	11	5	6	#48-48-49		
15	2	5	6	12	#48-48-49		
16	2	12	6	1	#48-48-49		
17	2	6	1	7	#48-48-49		
18	2	7	1	2	#48-48-49		
							
Dihedrals							
							
1	1	1	2	3	4	#48-48-48-48	
2	1	2	3	4	5	#48-48-48-48	
3	1	3	4	5	6	#48-48-48-48	
4	1	4	5	6	1	#48-48-48-48	
5	1	5	6	1	2	#48-48-48-48	
6	1	6	1	2	3	#48-48-48-48	
7	2	1	2	3	9	#48-48-48-49	
8	2	2	3	4	10	#48-48-48-49	
9	2	3	4	5	11	#48-48-48-49	
10	2	4	5	6	12	#48-48-48-49	
11	2	5	6	1	7	#48-48-48-49	
12	2	6	1	2	8	#48-48-48-49	
13	2	7	1	2	3	#48-48-48-49	
14	2	8	2	3	4	#48-48-48-49	
15	2	9	3	4	5	#48-48-48-49	
16	2	10	4	5	6	#48-48-48-49	
17	2	11	5	6	1	#48-48-48-49	
18	2	12	6	1	2	#48-48-48-49	
19	3	7	1	2	8	#49-48-48-49	
20	3	8	2	3	9	#49-48-48-49	
21	3	9	3	4	10	#49-48-48-49	
22	3	10	4	5	11	#49-48-48-49	
23	3	11	5	6	12	#49-48-48-49	
24	3	12	6	1	7	#49-48-48-49	
25	4	1	3	2	8	#0-0-48-0 (improper)	
26	4	2	4	3	9	#0-0-48-0 (improper)	
27	4	3	5	4	10	#0-0-48-0 (improper)	
28	4	4	6	5	11	#0-0-48-0 (improper)	
29	4	5	1	6	12	#0-0-48-0 (improper)	
30	4	6	2	1	7	#0-0-48-0 (improper)	
							
Bond Coeffs							
							
1	20.3374	 1.4000	#48-48				
2	15.9143	 1.0800	#48-49				
							
Angle Coeffs							
							
1	2.7318	120.00	#48-48-48				
2	1.5177	120.00	#48-48-49				
							
Dihedral Coeffs							
							
1	0	0.3144	0	0	#48-48-48-48		
2	0	0.3144	0	0	#48-48-48-49		
3	0	0.3144	0	0	#49-48-48-49		
4	0	0.2168	0	0	#0-0-48-0 		