LAMMPS Bisphenol S (BPS) data file	#created by Philip Maruri, June 2020; checked by Ian Bourg	

27 atoms
28 bonds
44 angles
76 dihedrals

8 atom types
6 bond types
8 angle types
11 dihedral types	

-20.0  20.0 xlo xhi		
-20.0  20.0 ylo yhi	
-20.0  20.0 zlo zhi		

Masses		

1	32.060	#434(79) "Sulfone R-SO2-R"
2	15.999	#435(23) "Sulfone R-SO2-R"
3	15.999	#109(5) "Phenol -OH"
4	12.011	#429(48) "Aryl Sulfonamide C-SO2N" (the most similar C atom in OPLS)
5	12.011	#90(48) "Aromatic C"
6	12.011	#108(48) "Phenol C-OH"
7	1.008	#91(49) "Aromatic H-C"
8	1.008	#110(7) "Phenol -OH"

Atoms						

1	1	1	1.3740	-0.0023	1.6164	0.0001	#434(79)
2	1	2	-0.6870	-0.0235	2.3472	-1.2592	#435(23)
3	1	2	-0.6870	0.0604	2.3462	1.2596	#435(23)
4	1	3	-0.5850	-4.7904	-1.8261	0.0046	#109(5)
5	1	3	-0.5850	4.7803	-1.8338	-0.0048	#109(5)
6	1	4	0.0000	-1.4202	0.5969	0.0009	#429(48)
7	1	4	0.0000	1.4352	0.5793	-0.0008	#429(48)
8	1	5	-0.1150	-1.9856	0.1899	1.2095	#90(48)
9	1	5	-0.1150	1.9786	0.1869	-1.2094	#90(48)
10	1	5	-0.1150	-1.9876	0.1896	-1.2066	#90(48)
11	1	5	-0.1150	1.9807	0.1862	1.2066	#90(48)
12	1	5	-0.1150	-3.1179	-0.6246	1.2106	#90(48)
13	1	5	-0.1150	3.1096	-0.6294	-1.2107	#90(48)
14	1	5	-0.1150	-3.1201	-0.6249	-1.2054	#90(48)
15	1	5	-0.1150	3.1118	-0.6301	1.2053	#90(48)
16	1	6	0.1500	-3.6852	-1.0319	0.0033	#108(48)
17	1	6	0.1500	3.6762	-1.0377	-0.0034	#108(48)
18	1	7	0.1150	-1.5565	0.4903	2.1612	#91(49)
19	1	7	0.1150	1.5472	0.4890	-2.1585	#91(49)
20	1	7	0.1150	-1.5607	0.4868	-2.1604	#91(49)
21	1	7	0.1150	1.5515	0.4842	2.1580	#91(49)
22	1	7	0.1150	-3.5528	-0.9397	2.1552	#91(49)
23	1	7	0.1150	3.5389	-0.9415	-2.1589	#91(49)
24	1	7	0.1150	-3.5517	-0.9369	-2.1527	#91(49)
25	1	7	0.1150	3.5477	-0.9469	2.1490	#91(49)
26	1	8	0.4350	-5.0472	-2.0101	-0.9154	#110(7)
27	1	8	0.4350	5.0349	-2.0178	-0.9254	#110(7)

Bonds						

1	1	4	16	#5-48
2	2	4	26	#5-7
3	1	5	17	#5-48
4	2	5	27	#5-7
5	3	6	8	#48-48
6	3	6	10	#48-48
7	3	7	9	#48-48
8	3	7	11	#48-48
9	3	8	12	#48-48
10	4	8	18	#48-49
11	3	12	16	#48-48
12	4	12	22	#48-49
13	3	10	14	#48-48
14	4	10	20	#48-49
15	3	14	16	#48-48
16	4	14	24	#48-49
17	3	11	15	#48-48
18	4	11	21	#48-49
19	3	15	17	#48-48
20	4	15	25	#48-49
21	3	9	13	#48-48
22	4	9	19	#48-49
23	3	13	17	#48-48
24	4	13	23	#48-49
25	5	6	1	#48-79
26	5	7	1	#48-79
27	6	2	1	#23-79
28	6	3	1	#23-79

Angles				

1	1	26	4	16	#7-5-48
2	1	27	5	17	#7-5-48
3	2	8	6	10	#48-48-48
4	2	14	10	6	#48-48-48
5	2	12	8	6	#48-48-48
6	3	6	8	18	#48-48-49
7	3	6	10	20	#48-48-49
8	2	10	14	16	#48-48-48
9	3	14	10	20	#48-48-49
10	3	10	14	24	#48-48-49
11	2	8	12	16	#48-48-48
12	3	12	8	18	#48-48-49
13	3	8	12	22	#48-48-49
14	2	12	16	14	#48-48-48
15	3	16	12	22	#48-48-49
16	3	16	14	24	#48-48-49
17	2	9	7	11	#48-48-48
18	3	7	9	19	#48-48-49
19	3	7	11	21	#48-48-49
20	2	7	11	15	#48-48-48
21	3	15	11	21	#48-48-49
22	3	11	15	25	#48-48-49
23	2	15	17	13	#48-48-48
24	3	17	15	25	#48-48-49
25	3	17	13	23	#48-48-49
26	2	7	9	13	#48-48-48
27	3	13	9	19	#48-48-49
28	3	9	13	23	#48-48-49
29	4	4	16	14	#5-48-48
30	4	4	16	12	#5-48-48
31	2	9	13	17	#48-48-48
32	4	5	17	13	#5-48-48
33	4	5	17	15	#5-48-48
34	2	11	15	17	#48-48-48
35	5	8	6	1	#48-48-79
36	5	10	6	1	#48-48-79
37	5	9	7	1	#48-48-79
38	5	11	7	1	#48-48-79
39	6	6	1	7	#48-79-48
40	7	2	1	6	#23-79-48
41	7	2	1	7	#23-79-48
42	7	3	1	7	#23-79-48
43	7	3	1	6	#23-79-48
44	8	2	1	3	#23-79-23

Dihedrals

1	1	8	6	1	2	#48-48-79-23
2	1	10	6	1	2	#48-48-79-23
3	1	8	6	1	3	#48-48-79-23
4	1	10	6	1	3	#48-48-79-23
5	2	7	1	6	8	#48-79-48-48
6	2	7	1	6	10	#48-79-48-48
7	1	9	7	1	2	#48-48-79-23
8	1	11	7	1	2	#48-48-79-23
9	1	9	7	1	3	#48-48-79-23
10	1	11	7	1	3	#48-48-79-23
11	2	6	1	7	9	#48-79-48-48
12	2	6	1	7	11	#48-79-48-48
13	3	26	4	16	12	#7-5-48-48
14	3	26	4	16	14	#7-5-48-48
15	3	27	5	17	13	#7-5-48-48
16	3	27	5	17	15	#7-5-48-48
17	4	1	6	8	12	#79-48-48-48
18	5	1	6	8	18	#79-48-48-49
19	6	10	6	8	12	#48-48-48-48
20	7	10	6	8	18	#48-48-48-49
21	4	1	6	10	14	#79-48-48-48
22	5	1	6	10	20	#79-48-48-49
23	6	14	10	6	8	#48-48-48-48
24	7	8	6	10	20	#48-48-48-49
25	4	1	7	9	13	#79-48-48-48
26	5	1	7	9	19	#79-48-48-49
27	6	11	7	9	13	#48-48-48-48
28	7	11	7	9	19	#48-48-48-49
29	4	1	7	11	15	#79-48-48-48
30	5	1	7	11	21	#79-48-48-49
31	6	9	7	11	15	#48-48-48-48
32	7	9	7	11	21	#48-48-48-49
33	6	6	8	12	16	#48-48-48-48
34	7	6	8	12	22	#49-48-48-48
35	7	16	12	8	18	#48-48-48-49
36	8	18	8	12	22	#49-48-48-49
37	6	7	9	13	17	#48-48-48-48
38	7	7	9	13	23	#49-48-48-48
39	7	17	13	9	19	#48-48-48-49
40	8	19	9	13	23	#49-48-48-49
41	6	6	10	14	16	#48-48-48-48
42	7	6	10	14	24	#49-48-48-48
43	7	16	14	10	20	#48-48-48-49
44	8	20	10	14	24	#49-48-48-49
45	6	7	11	15	17	#48-48-48-48
46	7	7	11	15	25	#49-48-48-48
47	7	17	15	11	21	#48-48-48-49
48	8	21	11	15	25	#49-48-48-49
49	9	4	16	12	8	#5-48-48-48
50	6	8	12	16	14	#48-48-48-48
51	10	4	16	12	22	#5-48-48-49
52	7	14	16	12	22	#48-48-48-49
53	9	5	17	13	9	#5-48-48-48
54	6	9	13	17	15	#48-48-48-48
55	10	5	17	13	23	#5-48-48-49
56	7	15	17	13	23	#48-48-48-49
57	9	4	16	14	10	#5-48-48-48
58	6	10	14	16	12	#48-48-48-48
59	10	4	16	14	24	#5-48-48-49
60	7	12	16	14	24	#48-48-48-49
61	9	5	17	15	11	#5-48-48-48
62	6	11	15	17	13	#48-48-48-48
63	10	5	17	15	25	#5-48-48-49
64	7	13	17	15	25	#48-48-48-49
65	11	8	1	6	10	#0-0-48-0 (Improper)
66	11	9	1	7	11	#0-0-48-0 (Improper)
67	11	12	6	8	18	#0-0-48-0 (Improper)
68	11	13	7	9	19	#0-0-48-0 (Improper)
69	11	14	6	10	20	#0-0-48-0 (Improper)
70	11	15	7	11	21	#0-0-48-0 (Improper)
71	11	16	8	12	22	#0-0-48-0 (Improper)
72	11	17	9	13	23	#0-0-48-0 (Improper)
73	11	16	10	14	24	#0-0-48-0 (Improper)
74	11	17	11	15	25	#0-0-48-0 (Improper)
75	11	14	12	16	4	#0-0-48-0 (Improper)
76	11	15	13	17	5	#0-0-48-0 (Improper)

Bond Coeffs				

1	19.5135	1.3640	#5-48
2	23.9799	0.9450	#5-7
3	20.3374	1.4000	#48-48
4	15.9143	1.0800	#48-49
5	14.7435	1.7700	#48-79
6	30.3543	1.4400	#23-79

Angle Coeffs				

1	1.5177	113.00	#7-5-48
2	2.7319	120.00	#48-48-48	
3	1.5177	120.00	#48-48-49	
4	3.0354	120.00	#5-48-48	
5	3.6859	119.40	#48-48-79	
6	2.6885	102.00	#48-79-48 (doesn't exist in OPLS; approximated as 13-79-48)
7	3.2089	107.20	#23-79-48	
8	4.5098	119.00	#23-79-23	

Dihedral Coeffs

1	0.0000	0.0000	0.0000	0.0000	#48-48-79-23 (generic 0-48-79-23)
2	0.0000	-0.0390	0.0000	0.0000	#48-48-79-48 (approximated as 48-48-79-13)
3	0.0000	0.0729	0.0000	0.0000	#7-5-48-48	
4	0.0000	0.3144	0.0000	0.0000	#79-48-48-48 (generic 0-48-48-48)
5	0.0000	0.3144	0.0000	0.0000	#79-48-48-49 (generic 0-48-48-49)
6	0.0000	0.3144	0.0000	0.0000	#48-48-48-48	
7	0.0000	0.3144	0.0000	0.0000	#48-48-48-49	
8	0.0000	0.3144	0.0000	0.0000	#49-48-48-49	
9	0.0000	0.3144	0.0000	0.0000	#5-48-48-48 (generic 0-48-48-48)
10	0.0000	0.3144	0.0000	0.0000	#5-48-48-49 (generic 0-48-48-49)
11	0.0000	0.2168	0.0000	0.0000	#0-0-48-0 (Improper)
