LAMMPS PFHxS data file, updated by Jennie, summer 2021		

23 atoms		
22 bonds		
42 angles
54 dihedrals		

7 atom types	
4 bond types		
7 angle types
7 dihedral types	

-10.0 10.0 xlo xhi		
-10.0 10.0 ylo yhi		
-10.0 10.0 zlo zhi		

Masses		

1 18.998	#F1PFBS	#795(1)				
2 12.011	#C1PFBS	#791(13)				
3 12.011	#C2PFBS	#792(13)
4 12.011	#C3PFBS	#792(13) - charge adjusted (Lopes paper)
5 18.998	#F2PFBS	#795(1) - charge adjusted (Lopes paper)				
6 32.06		#SPFBS #434(79) - Lopes paper
7 15.999	#OPFBS #435(23) - Lopes paper

Atoms	

1	1	2	0.36    -6.0188218774     -0.8816577928      0.0454468126                 
2	1	3	0.24    -4.7315788814     -0.0920049540      0.1882265566                 
3	1	3	0.24    -3.5512328619     -0.9927600319     -0.0966040339                 
4	1	3	0.24    -2.2424049712     -0.2248454472      0.0090643124                 
5	1	3	0.24    -1.0615958367     -1.1134399865     -0.3427946832                 
6	1	4	0.23    0.2180988668     -0.3143990163     -0.2472545941                 
7	1	1	-0.12   -6.1947254538     -1.3745992432     -1.2030507657                 
8	1	1	-0.12   -7.1011645749     -0.0997009160      0.3021288540                 
9	1	1	-0.12   -6.0912991987     -1.9265799996      0.9021597508                 
10	1	1	-0.12   -4.6494051944      0.4393583213      1.4413924021                 
11	1	1	-0.12   -4.7543587572      0.9718806449     -0.6656458449                 
12	1	1	-0.12   -2.2944944441      0.8544905647     -0.8216212081                 
13	1	1	-0.12   -1.0665049429     -2.1842078430      0.4981301227                 
14	1	6	1.02    1.6531654707     -1.3738870041     -0.6727244883                 
15	1       7 	-0.6433	1.1201554786     -2.5599869623     -1.3425030385                 
16	1       7 	-0.6434	2.2904300610     -1.6740838756      0.6131813075                 
17	1       7 	-0.6433	2.4811149425     -0.5409124371     -1.5513287079                 
18	1	5	-0.16   0.3311248784      0.2145409884      1.0189730795                 
19	1	5	-0.16   0.1276553323      0.7848761952     -1.0703596956                 
20	1       1	-0.12	-1.2801569936     -1.5889804598     -1.6011953272                 
21	1       1	-0.12   -3.6944298375     -1.5330004565     -1.3374223705                 
22	1       1	-0.12   -3.5606603580     -2.0406649396      0.7723678075                 
23	1       1	-0.12   -2.1223806636      0.2817299714      1.2672787724					


Bonds						

1	1	1	7		
2	1	1	8		
3	1	1	9		
4	2	1	2
5	1	2	10
6	1	2	11
7	2	2	3
8	1	3	21
9	1	3	22
10	2	3	4
11	1	4	12
12	1	4	23
13	2	4	5
14	1	5	13
15	1	5	20
16	2	5	6
17	1	6	18
18	1	6	19
19	3	6	14
20	4	14	15
21	4	14	16
22	4	14	17

Angles				

1	1	7	1	8
2	1	7	1	9
3	1	8	1	9
4	2	7	1	2
5	2	8	1	2
6	2	9	1	2
7	3	1	2	3
8	2	1	2	10
9	2	1	2	11
10	1	10	2	11
11	2	10	2	3
12	2	11	2	3
13	3	2	3	4
14	2	2	3	21
15	2	2	3	22
16	1	21	3	22
17	2	21	3	4
18	2	22	3	4
19	3	3	4	5
20	2	3	4	12
21	2	3	4	23
22	1	12	4	23
23	2	12	4	5
24	2	23	4	5
25	3	4	5	6
26	2	4	5	13	
27	2	4	5	20	
28	1	13	5	20
29	2	13	5	6
30	2	20	5	6
31	4	5	6	14
32	2	5	6	18
33	2	5	6	19
34	1	18	6	19
35	5	18	6	14
36	5	19	6	14
37	6	6	14	15
38	6	6	14	16
39	6	6	14	17
40	7	15	14	16
41	7	15	14	17
42	7	16	14	17


Dihedrals

1	1	7	1	2	10	# 1-13-13-1
2	1	7	1	2	11	# 1-13-13-1
3	1	8	1	2	10	# 1-13-13-1
4	1	8	1	2	11	# 1-13-13-1
5	1	9	1	2	10	# 1-13-13-1
6	1	9	1	2	11	# 1-13-13-1
7	2	7	1	2	3	# 1-13-13-13
8	2	8	1	2	3	# 1-13-13-13
9	2	9	1	2	3	# 1-13-13-13
10	3	1	2	3	4	# 13-13-13-13
11	2	1	2	3	21	# 1-13-13-13
12	2	1	2	3	22	# 1-13-13-13
13	1	10	2	3	21	# 1-13-13-1
14	1	10	2	3	22	# 1-13-13-1
15	1	11	2	3	21	# 1-13-13-1
16	1	11	2	3	22	# 1-13-13-1
17	2	10	2	3	4	# 1-13-13-13	
18	2	11	2	3	4	# 1-13-13-13
19	3	2	3	4	5	# 13-13-13-13
20	2	2	3	4	12	# 1-13-13-13
21	2	2	3	4	23	# 1-13-13-13
22	1	21	3	4	12	# 1-13-13-1
23	1	21	3	4	23	# 1-13-13-1
24	1	22	3	4	12	# 1-13-13-1
25	1	22	3	4	23	# 1-13-13-1
26	2	21	3	4	5	# 1-13-13-13	
27	2	22	3	4	5	# 1-13-13-13
28	3	3	4	5	6	# 13-13-13-13
29	2	3	4	5	13	# 1-13-13-13
30	2	3	4	5	20	# 1-13-13-13
31	1	12	4	5	13	# 1-13-13-1
32	1	12	4	5	20	# 1-13-13-1
33	1	23	4	5	13	# 1-13-13-1
34	1	23	4	5	20	# 1-13-13-1
35	2	12	4	5	6	# 1-13-13-13
36	2	23	4	5	6	# 1-13-13-13
37	4	4	5	6	14	# 13-13-13-79
38	2	4	5	6	18	# 1-13-13-13
39	2	4	5	6	19	# 1-13-13-13
40	1	13	5	6	18	# 1-13-13-1
41	1	13	5	6	19	# 1-13-13-1
42	1	20	5	6	18	# 1-13-13-1
43	1	20	5	6	19	# 1-13-13-1
44	5	5	6	14	15	# 13-13-79-23
45	5	5	6	14	16	# 13-13-79-23
46	5	5	6	14	17	# 13-13-79-23
47	6	18	6	14	15	# 1-13-79-23
48	6	18	6	14	16	# 1-13-79-23
49	6	18	6	14	17	# 1-13-79-23
50	6	19	6	14	15	# 1-13-79-23
51	6	19	6	14	16	# 1-13-79-23
52	6	19	6	14	17	# 1-13-79-23
53	7	13	5	6	14 	# 1-13-13-79 estimated as 46-13-13-79
54	7	20	5	6	14 	# 1-13-13-79 estimated as 46-13-13-79



Bond Coeffs				

1	15.915	1.360	#FC
2	11.622	1.529	#CC
3	20.418	1.818	#CSfromLopes	
4	55.252	1.442	#SOfromLopes

Angle Coeffs				

1	3.339	109.10	#FCF	
2	2.168	109.50	#FCC
3	2.530	112.70	#CCC
4	2.168	108.60	#CCS
5	3.596	111.80	#FCSfromLopes
6	4.509	102.60	#CSOfromLopes
7	5.022	115.30	#OSOfromLopes


Dihedral Coeffs

1	-0.108	0.0	0.011	0.0	#FCCF
2	0.013	-0.017	0.017	0.0	#FCCC
3	0.287	0.041	-0.060	-0.092	#CCCC
4	0.055	-0.009	0.020	0.0	#CCCS
5	0.0	0.0	0.0144	0.0	#CCSOfromLopes
6	0.0	0.0	0.0151	0.0	#FCSOfromLopes
7	0.0	0.0	0.0196	0.0	#estimated as 46-13-13-79

