LAMMPS Ethylbenzene data file #created by Morgan Wiese, June 2021; checked by Ian							
							
18 atoms							
18 bonds							
30 angles							
45 dihedrals							
							
5 atom types							
5 bond types							
7 angle types							
10 dihedral types							
							
-10 10 xlo xhi				
-10 10 ylo yhi				
-10 10 zlo zhi				
							
Masses							
							
1	12.011						
2	1.008						
3	12.011						
4	12.011						
5	1.008						
							
Atoms							
							
1	1	1	-0.115	-0.1275	-1.2079	0.1556	#90(48)
2	1	2	0.115	0.3953	-2.1558	0.2519	#91(49)
3	1	1	-0.115	-1.4985	-1.208	-0.1016	#90(48)
4	1	2	0.115	-2.0322	-2.1486	-0.2023	#91(49)
5	1	1	-0.115	-2.1841	-0.0001	-0.2303	#90(48)
6	1	2	0.115	-3.2515	-0.0003	-0.4308	#91(49)
7	1	1	-0.115	-1.4987	1.2079	-0.1017	#90(48)
8	1	2	0.115	-2.0324	2.1484	-0.2024	#91(49)
9	1	1	-0.115	-0.1277	1.2081	0.1555	#90(48)
10	1	2	0.115	0.3951	2.156	0.2518	#91(49)
11	1	1	-0.115	0.5579	0.0001	0.2841	#90(48)
12	1	3	-0.005	2.0237	0.0001	0.5593	#94(13)
13	1	5	0.06	2.2907	-0.8738	1.1666	#85(46)
14	1	5	0.06	2.2907	0.8744	1.1662	#85(46)
15	1	4	-0.18	2.8549	-0.0001	-0.721	#80(13)
16	1	5	0.06	2.6442	-0.8858	-1.3298	#85(46)
17	1	5	0.06	3.9222	-0.0001	-0.4784	#85(46)
18	1	5	0.06	2.6441	0.8854	-1.3301	#85(46)
							
Bonds							
							
1	1	1	2	#48-49			
2	2	1	3	#48-48			
3	1	3	4	#48-49			
4	2	3	5	#48-48			
5	1	5	6	#48-49			
6	2	5	7	#48-48			
7	1	7	8	#48-49			
8	2	7	9	#48-48			
9	1	9	10	#48-49			
10	2	9	11	#48-48			
11	2	11	1	#48-48			
12	3	11	12	#13-48			
13	4	12	13	#13-46			
14	4	12	14	#13-46			
15	5	12	15	#13-13			
16	4	15	16	#13-46			
17	4	15	17	#13-46			
18	4	15	18	#13-46			
							
Angles							
							
1	1	2	1	3	#48-48-49		
2	1	1	3	4	#48-48-49		
3	1	4	3	5	#48-48-49		
4	1	3	5	6	#48-48-49		
5	2	3	5	7	#48-48-48		
6	1	6	5	7	#48-48-49		
7	1	5	7	8	#48-48-49		
8	2	5	7	9	#48-48-48		
9	1	8	7	9	#48-48-49		
10	2	7	9	11	#48-48-48		
11	1	7	9	10	#48-48-49		
12	2	9	11	1	#48-48-48		
13	3	9	11	12	#13-48-48		
14	1	10	9	11	#48-48-49		
15	3	1	11	12	#13-48-48		
16	1	2	1	11	#48-48-49		
17	2	3	1	11	#48-48-48		
18	4	11	12	13	#46-13-48		
19	4	11	12	14	#46-13-48		
20	5	11	12	15	#13-13-48		
21	6	12	15	16	#13-13-46		
22	6	12	15	17	#13-13-46		
23	6	12	15	18	#13-13-46		
24	7	16	15	17	#46-13-46		
25	7	17	15	18	#46-13-46		
26	7	16	15	18	#46-13-46		
27	2	1	3	5	#48-48-48		
28	7	13	12	14	#46-13-46		
29	6	13	12	15	#13-13-46		
30	6	14	12	15	#13-13-46		
							
Dihedrals							
							
1	1	2	1	3	4	#49-48-48-49	
2	2	2	1	3	5	#48-48-48-49	
3	2	2	1	11	9	#48-48-48-49	
4	3	2	1	11	12	#13-48-48-49	
5	2	1	3	5	6	#48-48-48-49	
6	4	1	3	5	7	#48-48-48-48	
7	2	3	5	7	8	#48-48-48-49	
8	4	3	5	7	9	#48-48-48-48	
9	4	5	7	9	11	#48-48-48-48	
10	2	5	7	9	10	#48-48-48-49	
11	1	4	3	5	6	#49-48-48-49	
12	2	4	3	5	7	#48-48-48-49	
13	1	6	5	7	8	#49-48-48-49	
14	2	6	5	7	9	#48-48-48-49	
15	4	7	9	11	1	#48-48-48-48	
16	5	7	9	11	12	#13-48-48-48	
17	1	8	7	9	10	#49-48-48-49	
18	2	8	7	9	11	#48-48-48-49	
19	4	9	11	1	3	#48-48-48-48	
20	6	9	11	12	13	#46-13-48-48	
21	7	9	11	12	15	#13-13-48-48	
22	6	9	11	12	14	#46-13-48-48	
23	2	10	9	11	1	#48-48-48-49	
24	3	10	9	11	12	#13-48-48-49	
25	8	11	12	15	16	#46-13-13-48	
26	8	11	12	15	17	#46-13-13-48	
27	8	11	12	15	18	#46-13-13-48	
28	9	13	12	15	16	#46-13-13-46	
29	9	13	12	15	17	#46-13-13-46	
30	9	13	12	15	18	#46-13-13-46	
31	9	14	12	15	16	#46-13-13-46	
32	9	14	12	15	17	#46-13-13-46	
33	9	14	12	15	18	#46-13-13-46	
34	4	5	3	1	11	#48-48-48-48	
35	2	4	3	1	11	#48-48-48-49	
36	5	3	1	11	12	#13-48-48-48	
37	6	1	11	12	13	#46-13-48-48	
38	6	1	11	12	14	#46-13-48-48	
39	7	1	11	12	15	#13-13-48-48	
40	10	3	11	1	2	#0-0-48-0 (improper)	
41	10	5	1	3	4	#0-0-48-0 (improper)	
42	10	7	3	5	6	#0-0-48-0 (improper)	
43	10	9	5	7	8	#0-0-48-0 (improper)	
44	10	11	7	9	10	#0-0-48-0 (improper)	
45	10	1	9	11	12	#0-0-48-0 (improper)	
							
Bond Coeffs							
							
1	15.9143	1.0800	#48-49				
2	20.3374	1.4000	#48-48				
3	13.7462	1.5100	#13-48				
4	14.7435	1.0900	#13-46				
5	11.6214	1.5290	#13-13				
							
Angle Coeffs							
							
1	1.5177	120.00	#48-48-49				
2	2.7319	120.00	#48-48-48			
3	3.0354	120.00	#13-48-48				
4	1.5177	109.50	#46-13-48				
5	2.7319	114.00	#13-13-48				
6	1.6261	110.70	#13-13-46				
7	1.4310	107.80	#46-13-46				
							
Dihedral Coeffs							
							
1	0	0.3144	0	0	#49-48-48-49		
2	0	0.3144	0	0	#48-48-48-49		
3	0	0.3144	0	0	#13-48-48-49		
4	0	0.3144	0	0	#48-48-48-48		
5	0	0.3144	0	0	#13-48-48-48		
6	0	0	0	0	#46-13-48-48		
7	0	0	0	0	#13-13-48-48		
8	0	0	0.0200	0	#46-13-13-48		
9	0	0	0.0130	0	#46-13-13-46		
10	0	0.2168	0	0	#0-0-48-0 (improper)						