LAMMPS Benzidene data file	#created by Ethan Sontarp, July 2021, checked by Ian Bourg

26 atoms		
27 bonds		
42 angles
70 dihedrals

6 atom types	
6 bond types		
9 angle types
14 dihedral types

-20.0 20.0 xlo xhi		
-20.0 20.0 ylo yhi		
-20.0 20.0 zlo zhi		

Masses		

1 14.007		#Amine RNH2 Nitrogen
2 1.008 		#Amine RNH2 Hydrogen
3 12.011 	#Aniline C-NH2 Carbon
4 12.011		#Aromatic C Carbon
5 1.008 		#Aromatic H-C Hydrogen
6 12.011		#Biphenyl C1 Carbon

Atoms						

1	1	1	-0.9	-4.355473199	-0.237594177	1	#OPLS atom type 730(44)
2	1	2	0.36	-4.884360923	0.64692624	1	#OPLS atom type 739(45)
3	1	2	0.36	-4.879428879	-1.12504504	1	#OPLS atom type 739(45)
4	1	3	0.18	-2.93873638	-0.233650874	1	#OPLS atom type 746(48)
5	1	4	-0.115	-2.236240006	0.972433303	1	#OPLS atom type 90(48)
6	1	5	0.115	-2.772568069	1.913508085	1	#OPLS atom type 91(49)
7	1	4	-0.115	-0.838506689	0.980237524	1	#OPLS atom type 90(48)
8	1	5	0.115	-0.376333584	1.951521368	1	#OPLS atom type 91(49)
9	1	6	0	-0.091877703	-0.225726989	1	#OPLS atom type 460(86)
10	1	4	-0.115	-0.831781852	-1.435829093	1	#OPLS atom type 90(48)
11	1	5	0.115	-0.364209028	-2.404525096	1	#OPLS atom type 91(49)
12	1	4	-0.115	-2.229536964	-1.435805774	1	#OPLS atom type 90(48)
13	1	5	0.115	-2.76061803	-2.379851557	1	#OPLS atom type 91(49)
14	1	6	0	1.426088319	-0.221501894	1	#OPLS atom type 460(86)
15	1	4	-0.115	2.165992444	0.988600223	1	#OPLS atom type 90(48)
16	1	5	0.115	1.698419615	1.95729622	1	#OPLS atom type 91(49)
17	1	4	-0.115	3.563747548	0.988576943	1	#OPLS atom type 90(48)
18	1	5	0.115	4.094828581	1.932622743	1	#OPLS atom type 91(49)
19	1	3	0.18	4.272946996	-0.213577932	1	#OPLS atom type 746(48)
20	1	4	-0.115	3.570450654	-1.419662135	1	#OPLS atom type 90(48)
21	1	5	0.115	4.106778749	-2.360736899	1	#OPLS atom type 91(49)
22	1	4	-0.115	2.172717328	-1.427466394	1	#OPLS atom type 90(48)
23	1	5	0.115	1.710544229	-2.398750244	1	#OPLS atom type 91(49)
24	1	1	-0.9	5.689683814	-0.209634566	1	#OPLS atom type 730(44)
25	1	2	0.36	6.213639448	0.677816327	1	#OPLS atom type 739(45)
26	1	2	0.36	6.218571585	-1.094154954	1	#OPLS atom type 739(45)

Bonds						

1	1	1	2	#N-H bond OPLS (44-45)
2	1	1	3	#N-H bond OPLS (44-45)
3	2	1	4	#N-C bond OPLS (44-48)
4	3	4	5	#C-C bond OPLS (48-48)
5	4	5	6	#C-H bond OPLS (48-49)
6	3	5	7	#C-C bond OPLS (48-48)
7	4	7	8	#C-H bond OPLS (48-49)
8	5	7	9	#C-C bond OPLS (48-86)
9	5	9	10	#C-C bond OPLS (48-86)
10	4	10	11	#C-H bond OPLS (48-49)
11	3	10	12	#C-C bond OPLS (48-48)
12	4	12	13	#C-H bond OPLS (48-49)
13	3	4	12	#C-C bond OPLS (48-48)
14	6	9	14	#C-C bond OPLS (86-86)
15	5	14	15	#C-C bond OPLS (48-86)
16	4	15	16	#C-H bond OPLS (48-49)
17	3	15	17	#C-C bond OPLS (48-48)
18	4	17	18	#C-H bond OPLS (48-49)
19	3	17	19	#C-C bond OPLS (48-48)
20	3	19	20	#C-C bond OPLS (48-48)
21	4	20	21	#C-H bond OPLS (48-49)
22	3	20	22	#C-C bond OPLS (48-48)
23	4	22	23	#C-H bond OPLS (48-49)
24	5	14	22	#C-C bond OPLS (48-86)
25	2	19	24	#N-C bond OPLS (44-48)
26	1	24	25	#N-H bond OPLS (44-45)
27	1	24	26	#N-H bond OPLS (44-45)

Angles				

1	1	2	1	3	#H-N-H angle OPLS (45-44-45)
2	1	25	24	26	#H-N-H angle OPLS (45-44-45)
3	2	2	1	4	#H-N-C angle OPLS (45-44-48)
4	2	3	1	4	#H-N-C angle OPLS (45-44-48)
5	2	19	24	25	#H-N-C angle OPLS (45-44-48)
6	2	19	24	26	#H-N-C angle OPLS (45-44-48)
7	3	4	5	7	#C-C-C angle OPLS (48-48-48)
8	3	4	12	10	#C-C-C angle OPLS (48-48-48)
9	3	15	17	19	#C-C-C angle OPLS (48-48-48)
10	3	19	20	22	#C-C-C angle OPLS (48-48-48)
11	3	5	4	12	#C-C-C angle OPLS (48-48-48)
12	3	17	19	20	#C-C-C angle OPLS (48-48-48)
13	4	1	4	5	#N-C-C angle OPLS (44-48-48)
14	4	1	4	12	#N-C-C angle OPLS (44-48-48)
15	4	17	19	24	#N-C-C angle OPLS (44-48-48)
16	4	20	19	24	#N-C-C angle OPLS (44-48-48)
17	5	4	5	6	#C-C-H angle OPLS (48-48-49)
18	5	4	12	13	#C-C-H angle OPLS (48-48-49)
19	5	18	17	19	#C-C-H angle OPLS (48-48-49)
20	5	19	20	21	#C-C-H angle OPLS (48-48-49)
21	5	5	7	8	#C-C-H angle OPLS (48-48-49)
22	5	6	5	7	#C-C-H angle OPLS (48-48-49)
23	5	10	12	13	#C-C-H angle OPLS (48-48-49)
24	5	11	10	12	#C-C-H angle OPLS (48-48-49)
25	5	15	17	18	#C-C-H angle OPLS (48-48-49)
26	5	16	15	17	#C-C-H angle OPLS (48-48-49)
27	5	20	22	23	#C-C-H angle OPLS (48-48-49)
28	5	21	20	22	#C-C-H angle OPLS (48-48-49)
29	6	8	7	9	#H-C-C angle OPLS (49-48-86)
30	6	9	10	11	#H-C-C angle OPLS (49-48-86)
31	6	14	15	16	#H-C-C angle OPLS (49-48-86)
32	6	14	22	23	#H-C-C angle OPLS (49-48-86)
33	7	5	7	9	#C-C-C angle OPLS (48-48-86)
34	7	9	10	12	#C-C-C angle OPLS (48-48-86)
35	7	14	15	17	#C-C-C angle OPLS (48-48-86)
36	7	14	22	20	#C-C-C angle OPLS (48-48-86)
37	8	7	9	10	#C-C-C angle OPLS (48-86-48)
38	8	15	14	22	#C-C-C angle OPLS (48-86-48)
39	9	7	9	14	#C-C-C angle OPLS (48-86-86)
40	9	10	9	14	#C-C-C angle OPLS (48-86-86)
41	9	9	14	15	#C-C-C angle OPLS (48-86-86)
42	9	9	14	22	#C-C-C angle OPLS (48-86-86)

Dihedrals

1	1	2	1	4	5	#H-N-C-C dihedral OPLS (45-44-48-48)
2	1	2	1	4	12	#H-N-C-C dihedral OPLS (45-44-48-48)
3	1	3	1	4	5	#H-N-C-C dihedral OPLS (45-44-48-48)
4	1	3	1	4	12	#H-N-C-C dihedral OPLS (45-44-48-48)
5	1	17	19	24	25	#H-N-C-C dihedral OPLS (45-44-48-48)
6	1	20	19	24	25	#H-N-C-C dihedral OPLS (45-44-48-48)
7	1	17	19	24	26	#H-N-C-C dihedral OPLS (45-44-48-48)
8	1	20	19	24	26	#H-N-C-C dihedral OPLS (45-44-48-48)
9	2	1	4	5	7	#N-C-C-C dihedral OPLS (44-48-48-48)
10	2	1	4	12	10	#N-C-C-C dihedral OPLS (44-48-48-48)
11	2	15	17	19	24	#N-C-C-C dihedral OPLS (44-48-48-48)
12	2	22	20	19	24	#N-C-C-C dihedral OPLS (44-48-48-48)
13	3	1	4	5	6	#N-C-C-H dihedral OPLS (44-48-48-49)
14	3	1	4	12	13	#N-C-C-H dihedral OPLS (44-48-48-49)
15	3	18	17	19	24	#N-C-C-H dihedral OPLS (44-48-48-49)
16	3	21	20	19	24	#N-C-C-H dihedral OPLS (44-48-48-49)
17	4	5	4	12	10	#C-C-C-C dihedral OPLS (48-48-48-48)
18	4	7	5	4	12	#C-C-C-C dihedral OPLS (48-48-48-48)
19	4	17	19	20	22	#C-C-C-C dihedral OPLS (48-48-48-48)
20	4	15	17	19	20	#C-C-C-C dihedral OPLS (48-48-48-48)
21	5	4	5	7	8	#C-C-C-H dihedral OPLS (48-48-48-49)
22	5	4	12	10	11	#C-C-C-H dihedral OPLS (48-48-48-49)
23	5	16	15	17	19	#C-C-C-H dihedral OPLS (48-48-48-49)
24	5	19	20	22	23	#C-C-C-H dihedral OPLS (48-48-48-49)
25	5	5	4	12	13	#C-C-C-H dihedral OPLS (48-48-48-49)
26	5	6	5	4	12	#C-C-C-H dihedral OPLS (48-48-48-49)
27	5	17	19	20	21	#C-C-C-H dihedral OPLS (48-48-48-49)
28	5	18	17	19	20	#C-C-C-H dihedral OPLS (48-48-48-49)
29	6	4	5	7	9	#C-C-C-C dihedral OPLS (48-48-48-86)
30	6	4	12	10	9	#C-C-C-C dihedral OPLS (48-48-48-86)
31	6	14	15	17	19	#C-C-C-C dihedral OPLS (48-48-48-86)
32	6	14	22	20	19	#C-C-C-C dihedral OPLS (48-48-48-86)
33	7	6	5	7	8	#H-C-C-H dihedral OPLS (49-48-48-49)
34	7	11	10	12	13	#H-C-C-H dihedral OPLS (49-48-48-49)
35	7	16	15	17	18	#H-C-C-H dihedral OPLS (49-48-48-49)
36	7	21	20	22	23	#H-C-C-H dihedral OPLS (49-48-48-49)
37	8	6	5	7	9	#H-C-C-C dihedral OPLS (49-48-48-86)
38	8	9	10	12	13	#H-C-C-C dihedral OPLS (49-48-48-86)
39	8	14	15	17	18	#H-C-C-C dihedral OPLS (49-48-48-86)
40	8	14	22	20	21	#H-C-C-C dihedral OPLS (49-48-48-86)
41	9	5	7	9	10	#C-C-C-C dihedral OPLS (48-48-86-48)
42	9	7	9	10	12	#C-C-C-C dihedral OPLS (48-48-86-48)
43	9	17	15	14	22	#C-C-C-C dihedral OPLS (48-48-86-48)
44	9	15	14	22	20	#C-C-C-C dihedral OPLS (48-48-86-48)
45	10	5	7	9	14	#C-C-C-C dihedral OPLS (48-48-86-86)
46	10	12	10	9	14	#C-C-C-C dihedral OPLS (48-48-86-86)
47	10	9	14	15	17	#C-C-C-C dihedral OPLS (48-48-86-86)
48	10	9	14	22	20	#C-C-C-C dihedral OPLS (48-48-86-86)
49	11	8	7	9	10	#H-C-C-C dihedral OPLS (49-48-86-48)
50	11	7	9	10	11	#H-C-C-C dihedral OPLS (49-48-86-48)
51	11	16	15	14	22	#H-C-C-C dihedral OPLS (49-48-86-48)
52	11	15	14	22	23	#H-C-C-C dihedral OPLS (49-48-86-48)
53	12	8	7	9	14	#H-C-C-C dihedral OPLS (49-48-86-86)
54	12	11	10	9	14	#H-C-C-C dihedral OPLS (49-48-86-86)
55	12	9	14	15	16	#H-C-C-C dihedral OPLS (49-48-86-86)
56	12	9	14	22	23	#H-C-C-C dihedral OPLS (49-48-86-86)
57	13	7	9	14	15	#C-C-C-C dihedral OPLS (48-86-86-48)
58	13	7	9	14	22	#C-C-C-C dihedral OPLS (48-86-86-48)
59	13	10	9	14	15	#C-C-C-C dihedral OPLS (48-86-86-48)
60	13	10	9	14	22	#C-C-C-C dihedral OPLS (48-86-86-48)
61	14	1	5	4	12	#X-X-C-X improper OPLS (0-0-48-0)
62	14	20	17	19	24	#X-X-C-X improper OPLS (0-0-48-0)
63	14	4	6	5	7	#X-X-C-X improper OPLS (0-0-48-0)
64	14	4	13	12	10	#X-X-C-X improper OPLS (0-0-48-0)
65	14	15	18	17	19	#X-X-C-X improper OPLS (0-0-48-0)
66	14	19	21	20	22	#X-X-C-X improper OPLS (0-0-48-0)
67	14	5	8	7	9	#X-X-C-X improper OPLS (0-0-48-0)
68	14	9	11	10	12	#X-X-C-X improper OPLS (0-0-48-0)
69	14	14	16	15	17	#X-X-C-X improper OPLS (0-0-48-0)
70	14	14	23	22	20	#X-X-C-X improper OPLS (0-0-48-0)

Bond Coeffs				

1	18.8197	1.0100	#force constant and equilibrium length for bond type 1 (44-45)
2	20.8578	1.3400	#force constant and equilibrium length for bond type 2 (44-48)
3	20.3374	1.4000	#force constant and equilibrium length for bond type 3 (48-48)
4	15.9143	1.0800	#force constant and equilibrium length for bond type 4 (48-49)
5	20.3374	1.4000	#force constant and equilibrium length for bond type 5 (48-86)
6	16.6949	1.4600	#force constant and equilibrium length for bond type 6 (86-86)

Angle Coeffs				

1	1.8906	106.40	#force constant and equilibrium angle for angle type 1 (45-44-45)
2	1.5177	116.00	#force constant and equilibrium angle for angle type 2 (45-44-48)
3	2.7319	120.00	#force constant and equilibrium angle for angle type 3 (48-48-48)
4	3.0354	120.00	#force constant and equilibrium angle for angle type 4 (44-48-48)
5	1.5177	120.00	#force constant and equilibrium angle for angle type 5 (48-48-49)
6	1.5177	120.00	#force constant and equilibrium angle for angle type 6 (49-48-86)
7	2.7319	120.00	#force constant and equilibrium angle for angle type 7 (48-48-86)
8	2.7319	120.00	#force constant and equilibrium angle for angle type 8 (48-86-48)
9	2.7319	120.00	#force constant and equilibrium angle for angle type 9 (48-86-86)

Dihedral Coeffs

1	0.0000	0.0880	0.0000	0.0000	#torsions for dihedral type 1 (45-44-48-48)
2	0.0000	0.3144	0.0000	0.0000	#torsions for dihedral type 2 (44-48-48-48)
3	0.0000	0.3144	0.0000	0.0000	#torsions for dihedral type 3 (44-48-48-49)
4	0.0000	0.3144	0.0000	0.0000	#torsions for dihedral type 4 (48-48-48-48)
5	0.0000	0.3144	0.0000	0.0000	#torsions for dihedral type 5 (48-48-48-49)
6	0.0000	0.3144	0.0000	0.0000	#torsions for dihedral type 6 (48-48-48-86)
7	0.0000	0.3144	0.0000	0.0000	#torsions for dihedral type 7 (49-48-48-49)
8	0.0000	0.3144	0.0000	0.0000	#torsions for dihedral type 8 (49-48-48-86)
9	0.0000	0.3144	0.0000	0.0000	#torsions for dihedral type 9 (48-48-86-48)
10	0.0000	0.3144	0.0000	0.0000	#torsions for dihedral type 10 (48-48-86-86)
11	0.0000	0.3144	0.0000	0.0000	#torsions for dihedral type 11 (49-48-86-48)
12	0.0000	0.3144	0.0000	0.0000	#torsions for dihedral type 12 (49-48-86-86)
13	0.0000	0.0941	0.0000	0.0000	#torsions for dihedral type 13 (48-86-86-48)
14	0.0000	0.2168	0.0000	0.0000	#torsions for improper type 14 (0-0-48-0)