LAMMPS PFBA data file	# created by Cynthia July 2023, edited by Amélie 
			# modified to use same dihedral approximation for 52-3-13-1 (which doesn't exist) as used in PFOA: 52-3-13-46 
			# changed 3-13-13-13 dihedral parameters to the suggested alternate parameters for a carboxylate ion
			# adjusted charge of the C closest to the COO- group by -0.10; same as charge adjustment made for PFOA
			
13 atoms		
12 bonds		
21 angles
25 dihedrals		

5 atom types	
4 bond types		
7 angle types
7 dihedral types		

-10.0 10.0 xlo xhi		
-10.0 10.0 ylo yhi		
-10.0 10.0 zlo zhi		

Masses		

1 18.998	#F PFNA					
2 12.011	#C PFNA					
3 12.011	#C2 PFNA
4 12.011	#C3 PFNA
5 15.999	#O PFNA					

Atoms						

1	1	2	0.36	-2.792983	0.796216	0.037496	#OPLS atom type 791(13)
2	1	3	0.24	-1.40471	1.507712	0.066494	#OPLS atom type 792(13)
3	1	3	0.14	-0.185033	0.544701	-0.139876	#OPLS atom type 792(13); charge adjusted
4	1	4	0.7	1.180608	1.237276	-0.139819	#OPLS atom type 213(3)
5	1	1	-0.12	-3.783652	1.671321	0.300336	#OPLS atom type 795(1)
6	1	1	-0.12	-3.06896	0.259338	-1.166608	#OPLS atom type 795(1)
7	1	1	-0.12	-2.898924	-0.184197	0.954252	#OPLS atom type 795(1)
8	1	1	-0.12	-1.411107	2.463747	-0.888687	#OPLS atom type 795(1)
9	1	1	-0.12	-1.279127	2.155842	1.245719	#OPLS atom type 795(1)
10	1	1	-0.12	-0.17605	-0.398156	0.827339	#OPLS atom type 795(1)
11	1	1	-0.12	-0.317099	-0.128012	-1.302518	#OPLS atom type 795(1)
12	1	5	-0.8	1.251979	2.450782	-0.096935	#OPLS atom type 214(52)
13	1	5	-0.8	2.162611	0.520305	-0.20076	#OPLS atom type 214(52)

Bonds						

1	1	1	6	#F-C bond (OPLS bond type 1-13)
2	1	1	7	#F-C bond (OPLS bond type 1-13)
3	1	1	5	#F-C bond (OPLS bond type 1-13)
4	2	1	2	#C-C bond (OPLS bond type 13-13)
5	2	2	3	#C-C bond (OPLS bond type 13-13)
6	4	3	4	#End C-C bond (OPLS bond type 13-3)
7	1	2	8	#F-C bond (OPLS bond type 1-13)
8	1	2	9	#F-C bond (OPLS bond type 1-13)
9	1	3	10	#F-C bond (OPLS bond type 1-13)
10	1	3	11	#F-C bond (OPLS bond type 1-13)
11	3	4	12	#C-O bond (OPLS bond type 3-52)
12	3	4	13	#C-O bond (OPLS bond type 3-52)

Angles				

1	1	3	4	12	#C-C-O angle (OPLS angle type 13-3-52)
2	1	3	4	13	#C-C-O angle (OPLS angle type 13-3-52)
3	2	12	4	13	#O-C-O angle (OPLS angle type 52-3-52)
4	3	5	1	6	#F-C-F angle (OPLS angle type 1-13-1)
5	3	5	1	7	#F-C-F angle (OPLS angle type 1-13-1)
6	3	6	1	7	#F-C-F angle (OPLS angle type 1-13-1)
7	3	8	2	9	#F-C-F angle (OPLS angle type 1-13-1)
8	3	10	3	11	#F-C-F angle (OPLS angle type 1-13-1)
9	4	4	3	10	#F-C-C (end) angle (OPLS angle type 1-13-3)
10	4	4	3	11	#F-C-C (end) angle (OPLS angle type 1-13-3)
11	5	2	1	5	#F-C-C angle (OPLS angle type 1-13-13)
12	5	2	1	6	#F-C-C angle (OPLS angle type 1-13-13)
13	5	2	1	7	#F-C-C angle (OPLS angle type 1-13-13)
14	5	1	2	8	#F-C-C angle (OPLS angle type 1-13-13)
15	5	1	2	9	#F-C-C angle (OPLS angle type 1-13-13)
16	5	3	2	8	#F-C-C angle (OPLS angle type 1-13-13)
17	5	3	2	9	#F-C-C angle (OPLS angle type 1-13-13)
18	5	2	3	10	#F-C-C angle (OPLS angle type 1-13-13)
19	5	2	3	11	#F-C-C angle (OPLS angle type 1-13-13)
20	6	1	2	3	#C-C-C angle (OPLS angle type 13-13-13)
21	7	2	3	4	#C-C-C (end) angle (OPLS angle type 13-13-3)

Dihedrals

1	1	2	3	4	12	#C-C-C-O dihedral (OPLS dihedral type 13-13-3-52)
2	1	2	3	4	13	#C-C-C-O dihedral (OPLS dihedral type 13-13-3-52)
3	2	4	3	2	8	#C-C-C-F (end) dihedral (OPLS dihedral type 3-13-13-1)
4	2	4	3	2	9	#C-C-C-F (end) dihedral (OPLS dihedral type 3-13-13-1)
5	3	5	1	2	8	#F-C-C-F dihedral (OPLS dihedral type 1-13-13-1)
6	3	5	1	2	9	#F-C-C-F dihedral (OPLS dihedral type 1-13-13-1)
7	3	6	1	2	8	#F-C-C-F dihedral (OPLS dihedral type 1-13-13-1)
8	3	6	1	2	9	#F-C-C-F dihedral (OPLS dihedral type 1-13-13-1)
9	3	7	1	2	8	#F-C-C-F dihedral (OPLS dihedral type 1-13-13-1)
10	3	7	1	2	9	#F-C-C-F dihedral (OPLS dihedral type 1-13-13-1)
11	3	8	2	3	10	#F-C-C-F dihedral (OPLS dihedral type 1-13-13-1)
12	3	8	2	3	11	#F-C-C-F dihedral (OPLS dihedral type 1-13-13-1)
13	3	9	2	3	10	#F-C-C-F dihedral (OPLS dihedral type 1-13-13-1)
14	3	9	2	3	11	#F-C-C-F dihedral (OPLS dihedral type 1-13-13-1)
15	4	3	2	1	5	#C-C-C-F dihedral (OPLS dihedral type 13-13-13-1)
16	4	3	2	1	6	#C-C-C-F dihedral (OPLS dihedral type 13-13-13-1)
17	4	3	2	1	7	#C-C-C-F dihedral (OPLS dihedral type 13-13-13-1)
18	4	1	2	3	10	#C-C-C-F dihedral (OPLS dihedral type 13-13-13-1)
19	4	1	2	3	11	#C-C-C-F dihedral (OPLS dihedral type 13-13-13-1)
20	5	1	2	3	4	#C-C-C-C dihedral (OPLS dihedral type 13-13-13-3)
21	6	10	3	4	12	#F-C-C-O dihedral (52-3-13-1 doesn't exist, using 52-3-13-46)
22	6	10	3	4	13	#F-C-C-O dihedral (52-3-13-1 doesn't exist, using 52-3-13-46)
23	6	11	3	4	12	#F-C-C-O dihedral (52-3-13-1 doesn't exist, using 52-3-13-46)
24	6	11	3	4	13	#F-C-C-O dihedral (52-3-13-1 doesn't exist, using 52-3-13-46)
25	7	3	12	4	13	#improper dihedral around atom 4 (OPLS improper type 0-0-3-52)

Bond Coeffs				

1	15.9143	1.3600		#force constant (in eV/A^2) and equilibrium length for bond type 1 (F-C, 1-13 in OPLS)
2	11.6214	1.5290		#force constant (in eV/A^2) and equilibrium length for bond type 2 (C-C, 13-13 in OPLS)
3	28.4463	1.2500		#force constant (in eV/A^2) and equilibrium length for bond type 3 (C-O, 3-52 in OPLS)
4	13.7462 1.5220		#force constant (in eV/A^2) and equilibrium length for bond type 4 (C-C (end), 13-3 in OPLS)	

Angle Coeffs				

1	3.03543	117.00		# OPLS angle type 13-3-52	
2	3.46907	126.00		# OPLS angle type 52-3-52
3	3.33898	109.10		# OPLS angle type 1-13-1
4	2.16817	109.50		# OPLS angle type 1-13-3
5	2.16817	109.50		# OPLS angle type 1-13-13
6	2.53025	112.70		# OPLS angle type 13-13-13
7	2.73189	111.10		# OPLS angle type 13-13-3

Dihedral Coeffs

1	0.0	0.0356	0.0	0.0				#OPLS dihedral type 13-13-3-52
2	-0.1884	-0.0743	0.0	0.0				#OPLS dihedral type 3-13-13-1
3	-0.1084	1.3009	0.01084	0.0				#OPLS dihedral type 1-13-13-1
4	0.0130	-0.0173	0.0173	0.0				#OPLS dihedral type 13-13-13-1
5	-0.1381122	-0.03577475	0.0213781	0.0	#OPLS dihedral type 13-13-13-3 # using the alternate torsion parameters for a carboxylate ion
6	0.0	0.0	0.0	0.0				#OPLS dihedral type 52-3-13-46 (approximating 52-3-13-1, which doesn't exist)
7	0.0	0.9106	0.0	0.0				# OPLS improper type 0-0-3-52

