LAMMPS 4-Hydroxybenzoic data file	#created by Raneem Mohammed, May 2020; checked by Ian

15 atoms		
15 bonds		
22 angles
37 dihedrals
	
8 atom types	
6 bond types		
7 angle types
11 dihedral types	

-10.0  10.0 xlo xhi		
-10.0  10.0 ylo yhi		
-10.0  10.0 zlo zhi		

Masses		
					
1	1.008
2	15.999
3	1.008
4	12.011
5	12.011
6	12.011
7	15.999
8	15.999

Atoms
						
1	1	1	0.435	3.7872	0.89	-0.0013	#110(7)
2	1	2	-0.585	3.4587	-0.0255	-0.0011	#109(5)
3	1	3	0.115	1.9637	2.1523	-0.0004	#91(49)
4	1	3	0.115	-0.4873	2.1924	0	#91(49)
5	1	3	0.115	-0.5289	-2.1383	0.0007	#91(49)
6	1	3	0.115	1.9072	-2.1552	0.0005	#91(49)
7	1	4	-0.115	1.3828	-1.2034	0.0005	#90(48)
8	1	4	-0.115	-0.012	-1.1828	0.0006	#90(48)
9	1	5	-0.1	-0.6916	0.0354	0.0004	#842(48)
10	1	4	-0.115	0.0234	1.233	0.0002	#90(48)
11	1	4	-0.115	1.4181	1.2124	0	#90(48)
12	1	6	0.15	2.0979	-0.0057	0.0003	#108(48)
13	1	7	0.7	-2.1458	0.0566	0.0002	#213(3)
14	1	8	-0.8	-2.8471	1.0736	-0.0002	#214(52)
15	1	8	-0.8	-2.6845	-1.1936	-0.001	#214(52)

Bonds						

1	1	1	2	#O-H bond	#7-5
2	2	2	12	#C-O bond	#5-48
3	3	12	11	#C-C bond	#48-48
4	3	11	10	#C-C bond	#48-48
5	3	10	9	#C-C bond	#48-48
6	3	9	8	#C-C bond	#48-48
7	3	8	7	#C-C bond	#48-48
8	3	7	12	#C-C bond	#48-48
9	4	11	3	#C-H bond	#48-49
10	4	10	4	#C-H bond	#48-49
11	4	8	5	#C-H bond	#48-49
12	4	7	6	#C-H bond	#48-49
13	5	9	13	#C-C bond	#48-3
14	6	13	14	#C-O bond	#3-52
15	6	13	15	#C-O bond	#3-52

Angles				

1	1	1	2	12	#7-5-48
2	2	2	12	7	#5-48-48
3	2	2	12	11	#5-48-48
4	3	12	7	8	#48-48-48
5	3	7	8	9	#48-48-48
6	3	8	9	10	#48-48-48
7	3	9	10	11	#48-48-48
8	3	10	11	12	#48-48-48
9	3	11	12	7	#48-48-48
10	4	3	11	12	#49-48-48
11	4	3	11	10	#49-48-48
12	4	4	10	11	#49-48-48
13	4	4	10	9	#49-48-48
14	4	5	8	9	#49-48-48
15	4	5	8	7	#49-48-48
16	4	6	7	12	#49-48-48
17	4	6	7	8	#49-48-48
18	5	13	9	10	#3-48-48
19	5	13	9	8	#3-48-48
20	6	14	13	9	#52-3-48
21	7	14	13	15	#52-3-52
22	6	15	13	9	#52-3-48

Dihedrals

1	1	1	2	12	7	#7-5-48-48
2	1	1	2	12	11	#7-5-48-48
3	2	2	12	11	10	#5-48-48-48
4	3	2	12	11	3	#5-48-48-49
5	2	2	12	7	8	#5-48-48-48
6	3	2	12	7	6	#5-48-48-49
7	4	12	7	8	9	#48-48-48-48
8	4	7	8	9	10	#48-48-48-48
9	4	8	9	10	11	#48-48-48-48
10	4	9	10	11	12	#48-48-48-48
11	4	10	11	12	7	#48-48-48-48
12	5	3	11	12	7	#49-48-48-48
13	5	3	11	10	9	#49-48-48-48
14	6	3	11	10	4	#49-48-48-49
15	5	4	10	11	12	#49-48-48-48
16	5	4	10	9	8	#49-48-48-48
17	9	4	10	9	13	#49-48-48-3
18	5	5	8	9	10	#49-48-48-48
19	9	5	8	9	13	#49-48-48-3
20	5	5	8	7	12	#49-48-48-48
21	6	5	8	7	6	#49-48-48-49
22	5	6	7	8	9	#49-48-48-48
23	5	6	7	12	11	#49-48-48-48
24	4	8	7	12	11	#48-48-48-48
25	7	13	9	10	11	#3-48-48-48
26	7	13	9	8	7	#3-48-48-48
27	8	14	13	9	10	#52-3-48-48
28	8	14	13	9	8	#52-3-48-48
29	8	15	13	9	10	#52-3-48-48
30	8	15	13	9	8	#52-3-48-48
31	10	11	2	12	7	#0-0-48-0 improper
32	10	10	3	11	12	#0-0-48-0 improper
33	10	9	4	10	11	#0-0-48-0 improper
34	10	8	13	9	10	#0-0-48-0 improper
35	10	7	5	8	9	#0-0-48-0 improper
36	10	12	6	7	8	#0-0-48-0 improper
37	11	14	9	13	15	#0-0-3-52 improper

Bond Coeffs				

1	23.9799	0.9450	#7-5
2	19.5135	1.3640	#5-48
3	20.3374	1.4000	#48-48
4	15.9143	1.0800	#48-49
5	17.3453	1.4900	#48-3
6	28.4463	1.2500	#3-52

Angle Coeffs				

1	1.5177	113.00	#7-5-48
2	3.0354	120.00	#5-48-48
3	2.7319	120.00	#48-48-48
4	1.5177	120.00	#49-48-48
5	3.6859	120.00	#3-48-48
6	3.0354	117.00	#52-3-48
7	3.4691	126.00	#52-3-52

Dihedral Coeffs

1	0.0000	0.0729	0.000	0.000	#7-5-48-48
2	0.0000	0.3144	0.000	0.000	#5-48-48-48 (non-existent, using the generic 0-48-48-48)
3	0.0000	0.3144	0.000	0.000	#5-48-48-49 (non-existent, using the generic 0-48-48-49)
4	0.0000	0.3144	0.000	0.000	#48-48-48-48
5	0.0000	0.3144	0.000	0.000	#49-48-48-48
6	0.0000	0.3144	0.000	0.000	#49-48-48-49
7	0.0000	0.3144	0.000	0.000	#3-48-48-48 (non-existent, using the generic 0-48-48-48)
8	0.0000	0.0911	0.000	0.000	#52-3-48-48 (non-existent, using the parameters for 4-3-48-48, 5-3-48-48, and 20-3-48-48)
9	0.0000	0.3144	0.000	0.000	#49-48-48-3 (non-existent, using the generic 0-48-48-49)
10	0.0000	0.2168	0.000	0.000	#0-0-48-0 improper
11	0.0000	0.9106	0.000	0.000	#0-0-3-52 improper
