LAMMPS 5:3 Fluorotelomer betaine data file, created by Ethan Sontarp, summer 2021, checked by Jennie

40 atoms		
39 bonds		
75 angles
106 dihedrals

12 atom types	
6 bond types		
12 angle types
14 dihedral types

-20.0 20.0 xlo xhi		
-20.0 20.0 ylo yhi		
-20.0 20.0 zlo zhi		

Masses		

1 12.011 	#Perfluoroalkane CF3- Carbon
2 18.998	#Perfluoroalkane C-F Fluorine
3 12.011 	#Perfluoroalkane -CF2- Carbon
4 12.011	#Alkane -CH2- Carbon
5 1.008 	#Alkane H-C Hydrogen
6 12.011 	#Ammonium RCH2-NR3+ Carbon
7 1.008 	#Ammonium CH3-NR3+ Hydrogen
8 14.007 	#Ammonium R4N+ Nitrogen
9 12.011 	#Ammonium CH3-NR3+ Carbon
10 12.011  	#Carboxylate RCH2-COO- Carbon
11 12.011	#Carboxylate COO- Carbon
12 15.999  	#Carboxylate COO- Oxygen

Atoms						

1	1	1	0.36	-5.005479468	-2.503074206	-1.21178861	#OPLS atom type 791(13)
2	1	2	-0.12	-4.536032668	-1.304856148	-1.714059219	#OPLS atom type 795(1)
3	1	2	-0.12	-6.387939295	-2.447696205	-1.229356723	#OPLS atom type 795(1)
4	1	2	-0.12	-4.597808792	-3.541722711	-2.029425471	#OPLS atom type 795(1)
5	1	3	0.24	-4.532359701	-2.732756971	0.235050903	#OPLS atom type 792(13)
6	1	2	-0.12	-5.197888698	-3.849111555	0.716630887	#OPLS atom type 795(1)
7	1	2	-0.12	-4.923195612	-1.647292067	1.001935933	#OPLS atom type 795(1)
8	1	3	0.24	-3.01056872	-2.987359607	0.432183528	#OPLS atom type 792(13)
9	1	2	-0.12	-2.660351524	-4.146853133	-0.241043888	#OPLS atom type 795(1)
10	1	2	-0.12	-2.825198231	-3.21227525	1.787161142	#OPLS atom type 795(1)
11	1	3	0.24	-2.068386418	-1.834168648	-0.015653913	#OPLS atom type 792(13)
12	1	2	-0.12	-2.136295008	-1.686391962	-1.389873728	#OPLS atom type 795(1)
13	1	2	-0.12	-2.472735724	-0.653538484	0.587046843	#OPLS atom type 795(1)
14	1	3	0.24	-0.586692518	-2.100927849	0.356595285	#OPLS atom type 792(13)
15	1	2	-0.12	-0.164920065	-3.280189041	-0.237127926	#OPLS atom type 795(1)
16	1	2	-0.12	-0.464344025	-2.224194359	1.731667661	#OPLS atom type 795(1)
17	1	4	-0.12	0.322355664	-0.948910405	-0.1188771	#OPLS atom type 81(13)
18	1	5	0.06	0.236922723	-0.844457971	-1.222818786	#OPLS atom type 85(46)
19	1	5	0.06	-0.013570469	0.000840645	0.352412185	#OPLS atom type 85(46)
20	1	4	-0.12	1.797945529	-1.188025439	0.243135031	#OPLS atom type 81(13)
21	1	5	0.06	2.117111058	-2.137278995	-0.232880603	#OPLS atom type 85(46)
22	1	5	0.06	1.876041863	-1.285331509	1.344735009	#OPLS atom type 85(46)
23	1	6	0.05	2.678792326	-0.014606426	-0.254192934	#OPLS atom type 889(13)
24	1	7	0.1	2.544241285	0.05957303	-1.357802533	#OPLS atom type 892(46)
25	1	7	0.1	2.253690377	0.903101543	0.201085738	#OPLS atom type 892(46)
26	1	8	0	4.140855425	-0.109773685	0.066545024	#OPLS atom type 231(53)
27	1	9	-0.05	4.701515506	-1.391089049	-0.436228711	#OPLS atom type 888(13)
28	1	7	0.1	4.50549857	-1.514160962	-1.524953155	#OPLS atom type 892(46)
29	1	7	0.1	4.283253892	-2.268638001	0.100500774	#OPLS atom type 892(46)
30	1	7	0.1	5.802688474	-1.440740327	-0.278442386	#OPLS atom type 892(46)
31	1	9	-0.05	4.374453185	-0.035800976	1.531253269	#OPLS atom type 888(13)
32	1	7	0.1	3.930285408	0.886319875	1.965795056	#OPLS atom type 892(46)
33	1	7	0.1	5.463430534	-0.033793804	1.762150557	#OPLS atom type 892(46)
34	1	7	0.1	3.93788727	-0.906192196	2.064262855	#OPLS atom type 892(46)
35	1	10	0.03	4.896482003	0.992162071	-0.614904366	#OPLS atom type 216(13)
36	1	5	0.06	4.756552886	0.938018557	-1.718334175	#OPLS atom type 85(46)
37	1	5	0.06	5.988437848	0.858416423	-0.428910286	#OPLS atom type 85(46)
38	1	11	0.7	4.542091768	2.398537645	-0.171374925	#OPLS atom type 213(3)
39	1	12	-0.8	3.326667813	2.921179408	-0.420832033	#OPLS atom type 214(52)
40	1	12	-0.8	5.387590184	3.094096683	0.368799936	#OPLS atom type 214(52)

# Atom 35 had its charge substituted, with Carboxylate RCH2-COO- Carbon (OPLS 216) being changed to Carboxylate N-CH2-COO- Carbon to provide the correct parameters

Bonds						

1	1	1	2	#C-F bond OPLS (13-1)		
2	1	1	3	#C-F bond OPLS (13-1)		
3	1	1	4	#C-F bond OPLS (13-1)		
4	2	1	5	#C-C bond OPLS (13-13)		
5	1	5	6	#C-F bond OPLS (13-1)		
6	1	5	7	#C-F bond OPLS (13-1)		
7	2	5	8	#C-C bond OPLS (13-13)		
8	1	8	9	#C-F bond OPLS (13-1)		
9	1	8	10	#C-F bond OPLS (13-1)		
10	2	8	11	#C-C bond OPLS (13-13)		
11	1	11	12	#C-F bond OPLS (13-1)		
12	1	11	13	#C-F bond OPLS (13-1)		
13	2	11	14	#C-C bond OPLS (13-13)		
14	1	14	15	#C-F bond OPLS (13-1)		
15	1	14	16	#C-F bond OPLS (13-1)		
16	2	14	17	#C-C bond OPLS (13-13)		
17	3	17	18	#C-H bond OPLS (13-46)		
18	3	17	19	#C-H bond OPLS (13-46)		
19	2	17	20	#C-C bond OPLS (13-13)		
20	3	20	21	#C-H bond OPLS (13-46)		
21	3	20	22	#C-H bond OPLS (13-46)		
22	2	20	23	#C-C bond OPLS (13-13)		
23	3	23	24	#C-H bond OPLS (13-46)		
24	3	23	25	#C-H bond OPLS (13-46)		
25	4	23	26	#C-N bond OPLS (13-53)		
26	4	26	27	#C-N bond OPLS (13-53)		
27	3	27	28	#C-H bond OPLS (13-46)		
28	3	27	29	#C-H bond OPLS (13-46)		
29	3	27	30	#C-H bond OPLS (13-46)		
30	4	26	31	#C-N bond OPLS (13-53)		
31	3	31	32	#C-H bond OPLS (13-46)		
32	3	31	33	#C-H bond OPLS (13-46)		
33	3	31	34	#C-H bond OPLS (13-46)		
34	4	26	35	#C-N bond OPLS (13-53)		
35	3	35	36	#C-H bond OPLS (13-46)		
36	3	35	37	#C-H bond OPLS (13-46)		
37	5	35	38	#C-C bond OPLS (13-3)		
38	6	38	39	#C-O bond OPLS (3-52)		
39	6	38	40	#C-O bond OPLS (3-52)		

Angles				

1	1	35	38	39	#C-C-O angle OPLS (13-3-52)
2	1	35	38	40	#C-C-O angle OPLS (13-3-52)
3	2	39	38	40	#O-C-O angle OPLS (52-3-52)
4	3	2	1	3	#F-C-F angle OPLS (1-13-1)
5	3	2	1	4	#F-C-F angle OPLS (1-13-1)
6	3	3	1	4	#F-C-F angle OPLS (1-13-1)
7	3	6	5	7	#F-C-F angle OPLS (1-13-1)
8	3	9	8	10	#F-C-F angle OPLS (1-13-1)
9	3	12	11	13	#F-C-F angle OPLS (1-13-1)
10	3	15	14	16	#F-C-F angle OPLS (1-13-1)
11	4	2	1	5	#F-C-C angle OPLS (1-13-13)
12	4	3	1	5	#F-C-C angle OPLS (1-13-13)
13	4	4	1	5	#F-C-C angle OPLS (1-13-13)
14	4	1	5	6	#F-C-C angle OPLS (1-13-13)
15	4	1	5	7	#F-C-C angle OPLS (1-13-13)
16	4	6	5	8	#F-C-C angle OPLS (1-13-13)
17	4	7	5	8	#F-C-C angle OPLS (1-13-13)
18	4	5	8	9	#F-C-C angle OPLS (1-13-13)
19	4	9	8	11	#F-C-C angle OPLS (1-13-13)
20	4	5	8	10	#F-C-C angle OPLS (1-13-13)
21	4	10	8	11	#F-C-C angle OPLS (1-13-13)
22	4	8	11	12	#F-C-C angle OPLS (1-13-13)
23	4	12	11	14	#F-C-C angle OPLS (1-13-13)
24	4	8	11	13	#F-C-C angle OPLS (1-13-13)
25	4	13	11	14	#F-C-C angle OPLS (1-13-13)
26	4	11	14	15	#F-C-C angle OPLS (1-13-13)
27	4	11	14	16	#F-C-C angle OPLS (1-13-13)
28	4	15	14	17	#F-C-C angle OPLS (1-13-13)
29	4	16	14	17	#F-C-C angle OPLS (1-13-13)
30	5	1	5	8	#C-C-C angle OPLS (13-13-13)
31	5	5	8	11	#C-C-C angle OPLS (13-13-13)
32	5	8	11	14	#C-C-C angle OPLS (13-13-13)
33	5	11	14	17	#C-C-C angle OPLS (13-13-13)
34	5	14	17	20	#C-C-C angle OPLS (13-13-13)
35	5	17	20	23	#C-C-C angle OPLS (13-13-13)
36	6	18	17	19	#H-C-H angle OPLS (46-13-46)
37	6	21	20	22	#H-C-H angle OPLS (46-13-46)
38	6	24	23	25	#H-C-H angle OPLS (46-13-46)
39	6	28	27	29	#H-C-H angle OPLS (46-13-46)
40	6	28	27	30	#H-C-H angle OPLS (46-13-46)
41	6	29	27	30	#H-C-H angle OPLS (46-13-46)
42	6	32	31	33	#H-C-H angle OPLS (46-13-46)
43	6	32	31	34	#H-C-H angle OPLS (46-13-46)
44	6	33	31	34	#H-C-H angle OPLS (46-13-46)
45	6	36	35	37	#H-C-H angle OPLS (46-13-46)
46	7	36	35	38	#H-C-C angle OPLS (46-13-3)
47	7	37	35	38	#H-C-C angle OPLS (46-13-3)
48	8	14	17	18	#C-C-H angle OPLS (13-13-46)
49	8	14	17	19	#C-C-H angle OPLS (13-13-46)
50	8	17	20	21	#C-C-H angle OPLS (13-13-46)
51	8	17	20	22	#C-C-H angle OPLS (13-13-46)
52	8	18	17	20	#C-C-H angle OPLS (13-13-46)
53	8	19	17	20	#C-C-H angle OPLS (13-13-46)
54	8	20	23	24	#C-C-H angle OPLS (13-13-46)
55	8	20	23	25	#C-C-H angle OPLS (13-13-46)
56	8	21	20	23	#C-C-H angle OPLS (13-13-46)
57	8	22	20	23	#C-C-H angle OPLS (13-13-46)
58	9	24	23	26	#H-C-N angle OPLS (46-13-53)
59	9	25	23	26	#H-C-N angle OPLS (46-13-53)
60	9	26	27	28	#H-C-N angle OPLS (46-13-53)
61	9	26	27	29	#H-C-N angle OPLS (46-13-53)
62	9	26	27	30	#H-C-N angle OPLS (46-13-53)
63	9	26	31	32	#H-C-N angle OPLS (46-13-53)
64	9	26	31	33	#H-C-N angle OPLS (46-13-53)
65	9	26	31	34	#H-C-N angle OPLS (46-13-53)
66	9	26	35	36	#H-C-N angle OPLS (46-13-53)
67	9	26	35	37	#H-C-N angle OPLS (46-13-53)
68	10	26	35	38	#N-C-C angle OPLS (53-13-3)
69	11	20	23	26	#C-C-N angle OPLS (13-13-53)
70	12	23	26	27	#C-N-C angle OPLS (13-53-13)
71	12	23	26	31	#C-N-C angle OPLS (13-53-13)
72	12	23	26	35	#C-N-C angle OPLS (13-53-13)
73	12	27	26	31	#C-N-C angle OPLS (13-53-13)
74	12	27	26	35	#C-N-C angle OPLS (13-53-13)
75	12	31	26	35	#C-N-C angle OPLS (13-53-13)

Dihedrals

1	1	36	35	38	39	#H-C-C-O dihedral OPLS (46-13-3-52)
2	1	37	35	38	39	#H-C-C-O dihedral OPLS (46-13-3-52)
3	1	36	35	38	40	#H-C-C-O dihedral OPLS (46-13-3-52)
4	1	37	35	38	40	#H-C-C-O dihedral OPLS (46-13-3-52)
5	2	2	1	5	6	#F-C-C-F dihedral OPLS (1-13-13-1)
6	2	2	1	5	7	#F-C-C-F dihedral OPLS (1-13-13-1)
7	2	3	1	5	6	#F-C-C-F dihedral OPLS (1-13-13-1)
8	2	3	1	5	7	#F-C-C-F dihedral OPLS (1-13-13-1)
9	2	4	1	5	6	#F-C-C-F dihedral OPLS (1-13-13-1)
10	2	4	1	5	7	#F-C-C-F dihedral OPLS (1-13-13-1)
11	2	6	5	8	9	#F-C-C-F dihedral OPLS (1-13-13-1)
12	2	6	5	8	10	#F-C-C-F dihedral OPLS (1-13-13-1)
13	2	7	5	8	9	#F-C-C-F dihedral OPLS (1-13-13-1)
14	2	7	5	8	10	#F-C-C-F dihedral OPLS (1-13-13-1)
15	2	9	8	11	12	#F-C-C-F dihedral OPLS (1-13-13-1)
16	2	9	8	11	13	#F-C-C-F dihedral OPLS (1-13-13-1)
17	2	10	8	11	12	#F-C-C-F dihedral OPLS (1-13-13-1)
18	2	10	8	11	13	#F-C-C-F dihedral OPLS (1-13-13-1)
19	2	12	11	14	15	#F-C-C-F dihedral OPLS (1-13-13-1)
20	2	12	11	14	16	#F-C-C-F dihedral OPLS (1-13-13-1)
21	2	13	11	14	15	#F-C-C-F dihedral OPLS (1-13-13-1)
22	2	13	11	14	16	#F-C-C-F dihedral OPLS (1-13-13-1)
23	3	2	1	5	8	#F-C-C-C dihedral OPLS (1-13-13-13)
24	3	3	1	5	8	#F-C-C-C dihedral OPLS (1-13-13-13)
25	3	4	1	5	8	#F-C-C-C dihedral OPLS (1-13-13-13)
26	3	6	5	8	11	#F-C-C-C dihedral OPLS (1-13-13-13)
27	3	7	5	8	11	#F-C-C-C dihedral OPLS (1-13-13-13)
28	3	9	8	11	14	#F-C-C-C dihedral OPLS (1-13-13-13)
29	3	10	8	11	14	#F-C-C-C dihedral OPLS (1-13-13-13)
30	3	5	8	11	12	#F-C-C-C dihedral OPLS (1-13-13-13)
31	3	5	8	11	13	#F-C-C-C dihedral OPLS (1-13-13-13)
32	3	8	11	14	15	#F-C-C-C dihedral OPLS (1-13-13-13)
33	3	8	11	14	16	#F-C-C-C dihedral OPLS (1-13-13-13)
34	3	1	5	8	9	#F-C-C-C dihedral OPLS (1-13-13-13)
35	3	1	5	8	10	#F-C-C-C dihedral OPLS (1-13-13-13)
36	3	12	11	14	17	#F-C-C-C dihedral OPLS (1-13-13-13)
37	3	13	11	14	17	#F-C-C-C dihedral OPLS (1-13-13-13)
38	3	15	14	17	20	#F-C-C-C dihedral OPLS (1-13-13-13)
39	3	16	14	17	20	#F-C-C-C dihedral OPLS (1-13-13-13)
40	4	15	14	17	18	#F-C-C-H dihedral OPLS (1-13-13-46)
41	4	15	14	17	19	#F-C-C-H dihedral OPLS (1-13-13-46)
42	4	16	14	17	18	#F-C-C-H dihedral OPLS (1-13-13-46)
43	4	16	14	17	19	#F-C-C-H dihedral OPLS (1-13-13-46)
44	5	1	5	8	11	#C-C-C-C dihedral OPLS (13-13-13-13)
45	5	5	8	11	14	#C-C-C-C dihedral OPLS (13-13-13-13)
46	5	8	11	14	17	#C-C-C-C dihedral OPLS (13-13-13-13)
47	5	11	14	17	20	#C-C-C-C dihedral OPLS (13-13-13-13)
48	5	14	17	20	23	#C-C-C-C dihedral OPLS (13-13-13-13)
49	6	11	14	17	18	#H-C-C-C dihedral OPLS (46-13-13-13)
50	6	11	14	17	19	#H-C-C-C dihedral OPLS (46-13-13-13)
51	6	14	17	20	21	#H-C-C-C dihedral OPLS (46-13-13-13)
52	6	14	17	20	22	#H-C-C-C dihedral OPLS (46-13-13-13)
53	6	17	20	23	24	#H-C-C-C dihedral OPLS (46-13-13-13)
54	6	17	20	23	25	#H-C-C-C dihedral OPLS (46-13-13-13)
55	6	18	17	20	23	#H-C-C-C dihedral OPLS (46-13-13-13)
56	6	19	17	20	23	#H-C-C-C dihedral OPLS (46-13-13-13)
57	7	17	20	23	26	#C-C-C-N dihedral OPLS (13-13-13-53)
58	8	18	17	20	21	#H-C-C-H dihedral OPLS (46-13-13-46)
59	8	18	17	20	22	#H-C-C-H dihedral OPLS (46-13-13-46)
60	8	19	17	20	21	#H-C-C-H dihedral OPLS (46-13-13-46)
61	8	19	17	20	22	#H-C-C-H dihedral OPLS (46-13-13-46)
62	8	21	20	23	24	#H-C-C-H dihedral OPLS (46-13-13-46)
63	8	21	20	23	25	#H-C-C-H dihedral OPLS (46-13-13-46)
64	8	22	20	23	24	#H-C-C-H dihedral OPLS (46-13-13-46)
65	8	22	20	23	25	#H-C-C-H dihedral OPLS (46-13-13-46)
66	9	21	20	23	26	#H-C-C-N dihedral OPLS (46-13-13-53)
67	9	22	20	23	26	#H-C-C-N dihedral OPLS (46-13-13-53)
68	10	20	23	26	27	#C-C-N-C dihedral OPLS (13-13-53-13)
69	10	20	23	26	31	#C-C-N-C dihedral OPLS (13-13-53-13)
70	10	20	23	26	35	#C-C-N-C dihedral OPLS (13-13-53-13)
71	11	24	23	26	27	#H-C-N-C dihedral OPLS (46-13-53-13)
72	11	24	23	26	31	#H-C-N-C dihedral OPLS (46-13-53-13)
73	11	25	23	26	27	#H-C-N-C dihedral OPLS (46-13-53-13)
74	11	25	23	26	31	#H-C-N-C dihedral OPLS (46-13-53-13)
75	11	24	23	26	35	#H-C-N-C dihedral OPLS (46-13-53-13)
76	11	25	23	26	35	#H-C-N-C dihedral OPLS (46-13-53-13)
77	11	23	26	27	28	#H-C-N-C dihedral OPLS (46-13-53-13)
78	11	23	26	27	29	#H-C-N-C dihedral OPLS (46-13-53-13)
79	11	23	26	27	30	#H-C-N-C dihedral OPLS (46-13-53-13)
80	11	23	26	31	32	#H-C-N-C dihedral OPLS (46-13-53-13)
81	11	23	26	31	33	#H-C-N-C dihedral OPLS (46-13-53-13)
82	11	23	26	31	34	#H-C-N-C dihedral OPLS (46-13-53-13)
83	11	28	27	26	31	#H-C-N-C dihedral OPLS (46-13-53-13)
84	11	29	27	26	31	#H-C-N-C dihedral OPLS (46-13-53-13)
85	11	30	27	26	31	#H-C-N-C dihedral OPLS (46-13-53-13)
86	11	27	26	31	32	#H-C-N-C dihedral OPLS (46-13-53-13)
87	11	27	26	31	33	#H-C-N-C dihedral OPLS (46-13-53-13)
88	11	27	26	31	34	#H-C-N-C dihedral OPLS (46-13-53-13)
89	11	28	27	26	35	#H-C-N-C dihedral OPLS (46-13-53-13)
90	11	29	27	26	35	#H-C-N-C dihedral OPLS (46-13-53-13)
91	11	30	27	26	35	#H-C-N-C dihedral OPLS (46-13-53-13)
92	11	32	31	26	35	#H-C-N-C dihedral OPLS (46-13-53-13)
93	11	33	31	26	35	#H-C-N-C dihedral OPLS (46-13-53-13)
94	11	34	31	26	35	#H-C-N-C dihedral OPLS (46-13-53-13)
95	11	23	26	35	36	#H-C-N-C dihedral OPLS (46-13-53-13)
96	11	23	26	35	37	#H-C-N-C dihedral OPLS (46-13-53-13)
97	11	27	26	35	36	#H-C-N-C dihedral OPLS (46-13-53-13)
98	11	31	26	35	36	#H-C-N-C dihedral OPLS (46-13-53-13)
99	11	27	26	35	37	#H-C-N-C dihedral OPLS (46-13-53-13)
100	11	31	26	35	37	#H-C-N-C dihedral OPLS (46-13-53-13)
101	12	23	26	35	38	#C-N-C-C dihedral OPLS (13-53-13-3)
102	12	27	26	35	38	#C-N-C-C dihedral OPLS (13-53-13-3)
103	12	31	26	35	38	#C-N-C-C dihedral OPLS (13-53-13-3)
104	13	26	35	38	39	#N-C-C-O dihedral OPLS (53-13-3-52)
105	13	26	35	38	40	#N-C-C-O dihedral OPLS (53-13-3-52)
106	14	35	39	38	40	#X-X-C-O improper OPLS (0-0-3-52)

Bond Coeffs				

1	15.9143678	1.36	#force constant and equilibrium length for bond type 1 (13-1)		
2	11.6213912	1.529	#force constant and equilibrium length for bond type 2 (13-13)		
3	14.743556	1.09	#force constant and equilibrium length for bond type 3 (13-46)		
4	15.9143678	1.471	#force constant and equilibrium length for bond type 4 (13-53)		
5	13.7461978	1.522	#force constant and equilibrium length for bond type 5 (13-3)		
6	28.4463904	1.25	#force constant and equilibrium length for bond type 6 (3-52)		

Angle Coeffs				

1	3.035438	117	#force constant and equilibrium angle for angle type 1 (13-3-52)	
2	3.469072	126	#force constant and equilibrium angle for angle type 2 (52-3-52)	
3	3.3389818	109.1	#force constant and equilibrium angle for angle type 3 (1-13-1)	
4	2.16817	109.5	#force constant and equilibrium angle for angle type 4 (1-13-13)	
5	2.53025439	112.7	#force constant and equilibrium angle for angle type 5 (13-13-13)	
6	1.4309922	107.8	#force constant and equilibrium angle for angle type 6 (46-13-46)	
7	1.517719	109.5	#force constant and equilibrium angle for angle type 7 (46-13-3)	
8	1.6261275	110.7	#force constant and equilibrium angle for angle type 8 (13-13-46)	
9	1.517719	109.5	#force constant and equilibrium angle for angle type 9 (46-13-53)	
10	3.469072	111.2	#force constant and equilibrium angle for angle type 10 (53-13-3)	
11	3.469072	111.2	#force constant and equilibrium angle for angle type 11 (13-13-53)	
12	2.16817	113	#force constant and equilibrium angle for angle type 12 (13-53-13)	

Dihedral Coeffs

1	0	0	0	0	#torsions for dihedral type 1 (46-13-3-52)
2	-0.1084085	0	0.01084085	0	#torsions for dihedral type 2 (1-13-13-1)
3	0.01300902	-0.01734536	0.01734536	0	#torsions for dihedral type 3 (1-13-13-13)
4	0	0	0.01734536	0	#torsions for dihedral type 4 (1-13-13-46)
5	0.287152435	0.041108503	-0.060188399	-0.091843681	#torsions for dihedral type 5 (13-13-13-13)
6	0	0	0.01300898	0	#torsions for dihedral type 6 (46-13-13-13)
7	0.118468809	-0.009930219	0.02103118	0	#torsions for dihedral type 7 (13-13-13-53)
8	0	0	0.01300898	0	#torsions for dihedral type 8 (46-13-13-46)
9	0	0	0.01665149	0	#torsions for dihedral type 9 (46-13-13-53)
10	0.062356569	-0.005377062	0.0114479	0	#torsions for dihedral type 10 (13-13-53-13)
11	0	0	0.0130957	0	#torsions for dihedral type 11 (46-13-53-13)
12	0.062356569	-0.005377062	0.0114479	0	#torsions for dihedral type 12 (13-53-13-3)
13	0	0.035557988	0	0	#torsions for dihedral type 13 (53-13-3-52) * No OPLS-AA parameters for type 13 - used OPLS (13-13-3-52) for highest degree of specificity with C #(13) behaving similarly to N (53) in main chain
14	0	0.9106314	0	0	#torsions for improper type 14 (0-0-3-52)

