LAMMPS Diclofenac data file	#created by Amélie Lemay, June 2021; checked by Ian Bourg		

29 atoms		
30 bonds		
48 angles
82 dihedrals 	#68 proper, 14 improper		

11 atom types	
9 bond types		
13 angle types
20 dihedral types #17 proper, 3 improper		

-20.0 20.0 xlo xhi		
-20.0 20.0 ylo yhi		
-20.0 20.0 zlo zhi		

Masses		

1	35.453
2	15.999
3	14.007
4	12.011
5	12.011
6	12.011
7	12.011
8	12.011
9	1.008
10	1.008
11	1.008					

Atoms						

1	1	1	-0.18	1.887649		1.172626		-2.457318	#206(21)	"Chlorobenzene C-Cl"
2	1	1	-0.18	1.191275		-1.806235	2.105102		#206(21)	"Chlorobenzene C-Cl"
3	1	2	-0.8	-3.431868	-2.842425	-1.052735	#214(52)	"Carboxylate COO-"
4	1	2	-0.8	-2.11785		-2.079711	0.646894		#214(52)	"Carboxylate COO-"
5	1	3	-0.78	0.186237		-0.361363	-0.387547	#731(44)	"Amine R2NH"
6	1	4	-0.115	-2.088269	0.528112		-0.415872	#90(48)	"Aromatic C"
7	1	5	0.2	-0.727265	0.688506		-0.069577	#747(48)	"N-Me Aniline C-NHR"
8	1	6	-0.105	-2.566188	-0.662942	-1.220345	#216(13), charge adjusted	"Carboxylate RCH2-COO-"
9	1	5	0.2	1.591604		-0.344772	-0.178311	#747(48)	"N-Me Aniline C-NHR"
10	1	4	-0.115	-3.024353	1.487417		0.003291		#90(48)	"Aromatic C"
11	1	4	-0.115	-0.330658	1.843464		0.620031		#90(48)	"Aromatic C"
12	1	4	-0.115	-2.619196	2.611048		0.721499		#90(48)	"Aromatic C"
13	1	4	-0.115	-1.271871	2.796373		1.017099		#90(48)	"Aromatic C"
14	1	7	0.18	2.461154		0.351184		-1.043795	#205(48)	"Chlorobenzene C-Cl"
15	1	7	0.18	2.163913		-0.971909	0.945484		#205(48)	"Chlorobenzene C-Cl"
16	1	8	0.7	-2.73036		-1.974091	-0.455522	#213(3)	"Carboxylate COO-"
17	1	4	-0.115	3.845545		0.376361		-0.815437	#90(48)	"Aromatic C"
18	1	4	-0.115	3.545311		-0.937702	1.175641		#90(48)	"Aromatic C"
19	1	4	-0.115	4.388076		-0.270191	0.291993		#90(48)	"Aromatic C"
20	1	9	0.06	-1.86465		-0.843744	-2.045219	#85(46)	"Alkane H-C"
21	1	9	0.06	-3.521533	-0.41557		-1.701377	#85(46)	"Alkane H-C"
22	1	10	0.38	-0.23831		-1.198871	0.05747		#740(45)	"Amine R2NH"
23	1	11	0.115	-4.078569	1.344047		-0.220424	#91(49)	"Aromatic H-C"
24	1	11	0.115	0.708057		1.993242		0.893235		#91(49)	"Aromatic H-C"
25	1	11	0.115	-3.35792		3.333338		1.054224		#91(49)	"Aromatic H-C"
26	1	11	0.115	-0.953641	3.6682		1.579731		#91(49)	"Aromatic H-C"
27	1	11	0.115	4.503927		0.896521		-1.507035	#91(49)	"Aromatic H-C"
28	1	11	0.115	3.962317		-1.435168	2.047583		#91(49)	"Aromatic H-C"
29	1	11	0.115	5.460434		-0.254141	0.466539		#91(49)	"Aromatic H-C"

Bonds						

1	1	1	14	#21-48
2	1	2	15	#21-48
3	2	3	16	#3-52
4	2	4	16	#3-52
5	3	5	7	#44-48
6	3	5	9	#44-48
7	4	5	22	#44-45
8	5	6	7	#48-48
9	6	6	8	#13-48
10	5	6	10	#48-48
11	5	7	11	#48-48
12	7	8	16	#3-13
13	8	8	20	#13-46
14	8	8	21	#13-46
15	5	9	14	#48-48
16	5	9	15	#48-48
17	5	10	12	#48-48
18	9	10	23	#48-49
19	5	11	13	#48-48
20	9	11	24	#48-49
21	5	12	13	#48-48
22	9	12	25	#48-49
23	9	13	26	#48-49
24	5	14	17	#48-48
25	5	15	18	#48-48
26	5	17	19	#48-48
27	9	17	27	#48-49
28	5	18	19	#48-48
29	9	18	28	#48-49
30	9	19	29	#48-49

Angles				

1	1	3	16	8	#13-3-52
2	1	4	16	8	#13-3-52
3	2	3	16	4	#52-3-52
4	3	20	8	21	#46-13-46
5	4	16	8	20	#3-13-46
6	4	16	8	21	#3-13-46
7	5	6	8	20	#46-13-48
8	5	6	8	21	#46-13-48
9	6	6	8	16	#3-13-48
10	7	7	5	22	#45-44-48
11	7	9	5	22	#45-44-48
12	8	7	5	9	#48-44-48
13	9	6	7	11	#48-48-48
14	9	6	10	12	#48-48-48
15	9	10	12	13	#48-48-48
16	9	11	13	12	#48-48-48
17	9	17	19	18	#48-48-48
18	9	7	6	10	#48-48-48
19	9	7	11	13	#48-48-48
20	9	9	14	17	#48-48-48
21	9	9	15	18	#48-48-48
22	9	14	9	15	#48-48-48
23	9	14	17	19	#48-48-48
24	9	15	18	19	#48-48-48
25	10	7	6	8	#13-48-48
26	10	8	6	10	#13-48-48
27	11	5	7	6	#44-48-48
28	11	5	7	11	#44-48-48
29	11	5	9	14	#44-48-48
30	11	5	9	15	#44-48-48
31	12	1	14	9	#21-48-48
32	12	2	15	9	#21-48-48
33	12	1	14	17	#21-48-48
34	12	2	15	18	#21-48-48
35	13	6	10	23	#48-48-49
36	13	10	12	25	#48-48-49
37	13	11	13	26	#48-48-49
38	13	12	10	23	#48-48-49
39	13	12	13	26	#48-48-49
40	13	13	11	24	#48-48-49
41	13	13	12	25	#48-48-49
42	13	17	19	29	#48-48-49
43	13	18	19	29	#48-48-49
44	13	19	17	27	#48-48-49
45	13	19	18	28	#48-48-49
46	13	7	11	24	#48-48-49
47	13	14	17	27	#48-48-49
48	13	15	18	28	#48-48-49

Dihedrals

1	1	3	16	8	20	#52-3-13-46
2	1	3	16	8	21	#52-3-13-46
3	1	4	16	8	20	#52-3-13-46
4	1	4	16	8	21	#52-3-13-46
5	2	7	6	8	16	#3-13-48-48 (doesn't exit, using 0-13-48-48)
6	2	10	6	8	16	#3-13-48-48 (doesn't exit, using 0-13-48-48)
7	3	7	6	8	20	#46-13-48-48
8	3	7	6	8	21	#46-13-48-48
9	3	10	6	8	20	#46-13-48-48
10	3	10	6	8	21	#46-13-48-48
11	4	6	7	5	22	#45-44-48-48
12	4	11	7	5	22	#45-44-48-48
13	4	14	9	5	22	#45-44-48-48
14	4	15	9	5	22	#45-44-48-48
15	5	1	14	9	5	#21-48-48-44 (doesn't exist, using 0-48-48-0)
16	5	2	15	9	5	#21-48-48-44 (doesn't exist, using 0-48-48-0)
17	6	5	7	6	8	#44-48-48-13 (doesn't exist, using 0-48-48-13)
18	7	5	7	6	10	#44-48-48-48 (doesn't exist, using 0-48-48-48)
19	7	5	7	11	13	#44-48-48-48 (doesn't exist, using 0-48-48-48)
20	7	5	9	14	17	#44-48-48-48 (doesn't exist, using 0-48-48-48)
21	7	5	9	15	18	#44-48-48-48 (doesn't exist, using 0-48-48-48)
22	8	8	6	7	11	#13-48-48-48
23	8	8	6	10	12	#13-48-48-48
24	9	8	6	10	23	#13-48-48-49
25	10	1	14	9	15	#21-48-48-48
26	10	2	15	9	14	#21-48-48-48
27	10	1	14	17	19	#21-48-48-48
28	10	2	15	18	19	#21-48-48-48
29	11	1	14	17	27	#21-48-48-49
30	11	2	15	18	28	#21-48-48-49
31	12	5	7	11	24	#44-48-48-49
32	13	6	7	11	13	#48-48-48-48
33	13	10	6	7	11	#48-48-48-48
34	13	6	10	12	13	#48-48-48-48
35	13	10	12	13	11	#48-48-48-48
36	13	7	6	10	12	#48-48-48-48
37	13	7	11	13	12	#48-48-48-48
38	13	9	14	17	19	#48-48-48-48
39	13	9	15	18	19	#48-48-48-48
40	13	14	9	15	18	#48-48-48-48
41	13	15	9	14	17	#48-48-48-48
42	13	14	17	19	18	#48-48-48-48
43	13	15	18	19	17	#48-48-48-48
44	14	6	7	11	24	#48-48-48-49
45	14	6	10	12	25	#48-48-48-49
46	14	10	12	13	26	#48-48-48-49
47	14	11	13	12	25	#48-48-48-49
48	14	12	13	11	24	#48-48-48-49
49	14	13	12	10	23	#48-48-48-49
50	14	17	19	18	28	#48-48-48-49
51	14	18	19	17	27	#48-48-48-49
52	14	7	6	10	23	#48-48-48-49
53	14	7	11	13	26	#48-48-48-49
54	14	9	14	17	27	#48-48-48-49
55	14	9	15	18	28	#48-48-48-49
56	14	14	17	19	29	#48-48-48-49
57	14	15	18	19	29	#48-48-48-49
58	15	23	10	12	25	#49-48-48-49
59	15	24	11	13	26	#49-48-48-49
60	15	25	12	13	26	#49-48-48-49
61	15	27	17	19	29	#49-48-48-49
62	15	28	18	19	29	#49-48-48-49
63	16	6	7	5	9	#48-44-48-48 (does not exist, using 13-44-48-48)
64	16	9	5	7	11	#48-44-48-48 (does not exist, using 13-44-48-48)
65	16	7	5	9	14	#48-44-48-48 (does not exist, using 13-44-48-48)
66	16	7	5	9	15	#48-44-48-48 (does not exist, using 13-44-48-48)
67	17	3	16	8	6	#52-3-13-48 (does not exist, using 52-3-13-13)
68	17	4	16	8	6	#52-3-13-48 (does not exist, using 52-3-13-13)
69	18	3	8	16	4	#0-0-3-52 (improper)
70	19	1	9	14	17	#0-0-48-0 (improper)
71	19	2	9	15	18	#0-0-48-0 (improper)
72	19	5	6	7	11	#0-0-48-0 (improper)
73	19	5	14	9	15	#0-0-48-0 (improper)
74	19	6	12	10	23	#0-0-48-0 (improper)
75	19	10	13	12	25	#0-0-48-0 (improper)
76	19	11	12	13	26	#0-0-48-0 (improper)
77	19	17	18	19	29	#0-0-48-0 (improper)
78	19	7	8	6	10	#0-0-48-0 (improper)
79	19	7	13	11	24	#0-0-48-0 (improper)
80	19	14	19	17	27	#0-0-48-0 (improper)
81	19	15	19	18	28	#0-0-48-0 (improper)
82	20	9	22	5	7	#0-0-44-0 (does not exist, using 0-0-24-0) (improper)

Bond Coeffs				

1	13.0090	1.7250	#21-48
2	28.4463	1.2500	#3-52
3	20.8578	1.3400	#44-48
4	18.8197	1.0100	#44-45
5	20.3374	1.4000	#48-48
6	13.7462	1.5100	#13-48
7	13.7462	1.5220	#3-13
8	14.7435	1.0900	#13-46
9	15.9143	1.0800	#48-49		

Angle Coeffs				

1	3.0354	117.00	#13-3-52
2	3.4691	126.00	#52-3-52
3	1.4310	107.80	#46-13-46
4	1.5177	109.50	#3-13-46
5	1.5177	109.50	#46-13-48
6	2.7319	112.00	#3-13-48
7	1.5177	116.00	#45-44-48
8	2.1682	116.00	#48-44-48
9	2.7319	120.00	#48-48-48
10	3.0354	120.00	#13-48-48
11	3.0354	120.00	#44-48-48
12	3.2522	120.00	#21-48-48
13	1.5177	120.00	#48-48-49

Dihedral Coeffs

1	0.0000	0.0000	0.0000	0.0000	#52-3-13-46
2	0.0000	0.0000	0.0000	0.0000	#3-13-48-48 (doesn't exit, using 0-13-48-48)
3	0.0000	0.0000	0.0000	0.0000	#46-13-48-48
4	0.0000	0.0880	0.0000	0.0000	#45-44-48-48
5	0.0000	0.3144	0.0000	0.0000	#21-48-48-44 (doesn't exist, using 0-48-48-0)
6	0.0000	0.3144	0.0000	0.0000	#44-48-48-13 (doesn't exist, using 0-48-48-13)
7	0.0000	0.3144	0.0000	0.0000	#44-48-48-48 (doesn't exist, using 0-48-48-48)
8	0.0000	0.3144	0.0000	0.0000	#13-48-48-48
9	0.0000	0.3144	0.0000	0.0000	#13-48-48-49
10	0.0000	0.3144	0.0000	0.0000	#21-48-48-48
11	0.0000	0.3144	0.0000	0.0000	#21-48-48-49
12	0.0000	0.3144	0.0000	0.0000	#44-48-48-49
13	0.0000	0.3144	0.0000	0.0000	#48-48-48-48
14	0.0000	0.3144	0.0000	0.0000	#48-48-48-49
15	0.0000	0.3144	0.0000	0.0000	#49-48-48-49
16	0.0000	0.0880	0.0000	0.0000	#48-44-48-48 (does not exist, using 59-44-48-48)
17	0.0000	0.0356	0.0000	0.0000	#52-3-13-48 (does not exist, using 52-3-13-13)
18	0.0000	0.9106	0.0000	0.0000	#0-0-3-52 (improper)
19	0.0000	0.2168	0.0000	0.0000	#0-0-48-0 (improper)
20	0.0000	0.2168	0.0000	0.0000	#0-0-44-0 (does not exist, using 0-0-24-0) (improper)
