LAMMPS 1,1,1-Trichloroethane data file #created by Ethan Sontarp, summer 2021, checked by Jennie

8 atoms		
7 bonds		
12 angles
9 dihedrals

4 atom types	
3 bond types		
4 angle types
1 dihedral types

-20.0 20.0 xlo xhi		
-20.0 20.0 ylo yhi		
-20.0 20.0 zlo zhi		

Masses		

1 12.011 	#Alkyl Chloride R3C-Cl Carbon
2 35.453  	#Alkyl Chloride C-Cl Chlorine
3 12.011		#Alkane CH3- Carbon
4 1.008		#Alkane H-C Hydrogen

Atoms						

1	1	1	0.6	-4.499114433	1.273573177	-0.164515448	#OPLS atom type 804(13)
2	1	2	-0.2	-4.945076456	-0.200407696	-1.060065931	#OPLS atom type 800(21)
3	1	2	-0.2	-5.492392653	1.37793321	1.310618367	#OPLS atom type 800(21)
4	1	2	-0.2	-4.829161317	2.694649112	-1.186828831	#OPLS atom type 800(21)
5	1	3	-0.18	-3.020957681	1.23058485	0.20536483	#OPLS atom type 80(13)
6	1	4	0.06	-2.810458166	0.345706537	0.843089903	#OPLS atom type 85(46)
7	1	4	0.06	-2.39754476	1.165468148	-0.711766071	#OPLS atom type 85(46)
8	1	4	0.06	-2.738292544	2.148107124	0.764172705	#OPLS atom type 85(46)

#Atom 1 had its charge substituted using OPLS 804 (Alkyl Chloride R3C-Cl, charge +0.2) and replacing it with Alkyl Chloride RCl2C-Cl, with each additional Cl group adding +0.2 charge to the atom for a total of +0.6

Bonds						

1	1	1	2	#C-Cl bond OPLS (13-21)
2	1	1	3	#C-Cl bond OPLS (13-21)
3	1	1	4	#C-Cl bond OPLS (13-21)
4	2	1	5	#C-C bond OPLS (13-13)
5	3	5	6	#C-H bond OPLS (13-46)
6	3	5	7	#C-H bond OPLS (13-46)
7	3	5	8	#C-H bond OPLS (13-46)

Angles				

1	1	2	1	5	#Cl-C-C angle OPLS (21-13-13)
2	1	3	1	5	#Cl-C-C angle OPLS (21-13-13)
3	1	4	1	5	#Cl-C-C angle OPLS (21-13-13)
4	2	2	1	3	#Cl-C-Cl angle OPLS (21-13-21)
5	2	2	1	4	#Cl-C-Cl angle OPLS (21-13-21)
6	2	3	1	4	#Cl-C-Cl angle OPLS (21-13-21)
7	3	6	5	7	#H-C-H angle OPLS (46-13-46)
8	3	6	5	8	#H-C-H angle OPLS (46-13-46)
9	3	7	5	8	#H-C-H angle OPLS (46-13-46)
10	4	1	5	6	#C-C-H angle OPLS (13-13-46)
11	4	1	5	7	#C-C-H angle OPLS (13-13-46)
12	4	1	5	8	#C-C-H angle OPLS (13-13-46)

Dihedrals

1	1	2	1	5	6	#Cl-C-C-H dihedral OPLS (21-13-13-46)
2	1	2	1	5	7	#Cl-C-C-H dihedral OPLS (21-13-13-46)
3	1	2	1	5	8	#Cl-C-C-H dihedral OPLS (21-13-13-46)
4	1	3	1	5	6	#Cl-C-C-H dihedral OPLS (21-13-13-46)
5	1	3	1	5	7	#Cl-C-C-H dihedral OPLS (21-13-13-46)
6	1	3	1	5	8	#Cl-C-C-H dihedral OPLS (21-13-13-46)
7	1	4	1	5	6	#Cl-C-C-H dihedral OPLS (21-13-13-46)
8	1	4	1	5	7	#Cl-C-C-H dihedral OPLS (21-13-13-46)
9	1	4	1	5	8	#Cl-C-C-H dihedral OPLS (21-13-13-46)

Bond Coeffs				

1	10.624033	1.781	#force constant and equilibrium length for bond type 1 (13-21)
2	11.6213912	1.529	#force constant and equilibrium length for bond type 2 (13-13)
3	14.743556	1.09	#force constant and equilibrium length for bond type 3 (13-46)

Angle Coeffs				

1	2.9920746	109.8	#force constant and equilibrium angle for angle type 1 (21-13-13)
2	3.3823452	111.7	#force constant and equilibrium angle for angle type 2 (21-13-21)
3	1.4309922	107.8	#force constant and equilibrium angle for angle type 3 (46-13-46) 
4	1.6261275	110.7	#force constant and equilibrium angle for angle type 4 (13-13-46) 

Dihedral Coeffs

1	0	0	0.01734536	0	#torsions for dihedral type 1 (21-13-13-46)
