LAMMPS Glufosinate data file	 #created by Amélie Lemay, June 2021; checked by Ian Bourg	

22 atoms		
21 bonds		
39 angles
52 dihedrals	#51 proper, 1 improper	

11 atom types	
8 bond types		
17 angle types
17 dihedral types	#16 proper, 1 improper	

-20.0 20.0 xlo xhi		
-20.0 20.0 ylo yhi		
-20.0 20.0 zlo zhi		

Masses		

1	30.974
2	12.011
3	12.011
4	12.011
5	12.011
6	15.999
7	14.007
8	1.008
9	1.008
10	1.008
11	15.999					

Atoms						

1	1	1	1.6	-8.613979009	2.075996105	-0.4786052267	#391(64), charge adjusted 	"Me MePhosphonate P"
2	1	2	-0.53	-7.077911129	1.469261498	0.2901598945	#396(13), charge adjusted 	"Me MePhosphonate CH3-P"
3	1	3	-0.12	-5.881848316	2.391200018	0.0301298724	#81(13)	"Alkane -CH2-"
4	1	4	0.15	-4.575296826	1.768796532	0.4878948241	#242(13)	"ALA Zwitterion CA"
5	1	5	0.7	-3.259267564	2.598074498	0.3304226513	#213(3)	"Carboxylate COO-"
6	1	6	-0.8	-3.236919855	3.781002951	0.7194493429	#214(52)	"Carboxylate COO-"
7	1	6	-0.8	-2.34833176	1.842142744	-0.1654150519	#214(52)	"Carboxylate COO-"
8	1	7	-0.3	-4.38032287	0.4541511545	-0.2645108947	#230(53)	"Ammonium RNH3+"
9	1	8	0.33	-4.684907191	-0.3677148768	0.2487409515	#233(54)	"Ammonium RNH3+"
10	1	8	0.33	-4.77027354	0.5188424645	-1.209145301	#233(54)	"Ammonium RNH3+"
11	1	8	0.33	-3.337696559	0.4565680586	-0.3856760776	#233(54)	"Ammonium RNH3+"
12	1	9	0.06	-4.636022039	1.484984409	1.545484429	#85(46)	"Alkane H-C"
13	1	9	0.06	-6.046733709	3.34695844	0.5406909736	#85(46)	"Alkane H-C"
14	1	9	0.06	-5.8242714	2.631810462	-1.038753515	#85(46)	"Alkane H-C"
15	1	10	0.08	-6.907777623	0.4734799539	-0.1320049365	#397(46)	"Me MePhosphonate CH3-P"
16	1	10	0.08	-7.237357034	1.346062528	1.366504827	#397(46)	"Me MePhosphonate CH3-P"
17	1	11	-0.97	-8.365634678	2.081334098	-1.968305102	#392(52)	"Me MePhosphonate O=P-O"
18	1	11	-0.97	-9.0666145	3.285215515	0.2976847206	#392(52)	"Me MePhosphonate O=P-O"
19	1	2	-0.53	-9.741299169	0.7081723487	-0.1087630461	#396(13), charge adjusted 	"Me MePhosphonate CH3-P"
20	1	10	0.08	-10.75321895	0.9636849221	-0.4342972389	#397(46)	"Me MePhosphonate CH3-P"
21	1	10	0.08	-9.755972787	0.5013332925	0.9645658304	#397(46)	"Me MePhosphonate CH3-P"
22	1	10	0.08	-9.420851492	-0.1946571142	-0.6362529274	#397(46)	"Me MePhosphonate CH3-P"

Bonds

1	1	1	2	#13-64
2	2	2	3	#13-13
3	2	3	4	#13-13
4	3	4	5	#3-13
5	4	5	6	#3-52
6	4	5	7	#3-52
7	5	4	8	#13-53
8	6	8	9	#53-54
9	6	8	10	#53-54
10	6	8	11	#53-54
11	7	4	12	#13-46
12	7	3	13	#13-46
13	7	3	14	#13-46
14	7	2	15	#13-46
15	7	2	16	#13-46
16	8	1	17	#52-64
17	8	1	18	#52-64
18	1	1	19	#13-64
19	7	19	20	#13-46
20	7	19	21	#13-46
21	7	19	22	#13-46

Angles				

1	1	4	5	6	#13-3-52
2	1	4	5	7	#13-3-52
3	2	6	5	7	#52-3-52
4	3	2	3	4	#13-13-13
5	4	3	4	5	#3-13-13
6	5	13	3	14	#46-13-46
7	5	15	2	16	#46-13-46
8	5	20	19	21	#46-13-46
9	5	20	19	22	#46-13-46
10	5	21	19	22	#46-13-46
11	6	5	4	12	#3-13-46
12	7	2	3	13	#13-13-46
13	7	2	3	14	#13-13-46
14	7	3	2	15	#13-13-46
15	7	3	2	16	#13-13-46
16	7	3	4	12	#13-13-46
17	7	4	3	13	#13-13-46
18	7	4	3	14	#13-13-46
19	8	8	4	12	#46-13-53
20	9	5	4	8	#3-13-53
21	10	3	4	8	#13-13-53
22	11	1	2	15	#46-13-64
23	11	1	2	16	#46-13-64
24	11	1	19	20	#46-13-64
25	11	1	19	21	#46-13-64
26	11	1	19	22	#46-13-64
27	12	1	2	3	#13-13-64
28	13	4	8	9	#13-53-54
29	13	4	8	10	#13-53-54
30	13	4	8	11	#13-53-54
31	14	9	8	10	#54-53-54
32	14	9	8	11	#54-53-54
33	14	10	8	11	#54-53-54
34	15	2	1	17	#13-64-52
35	15	2	1	18	#13-64-52
36	15	17	1	19	#13-64-52
37	15	18	1	19	#13-64-52
38	16	17	1	18	#52-64-52
39	17	2	1	19	#13-64-13 does not exist, using 13-64-20 instead

Dihedrals

1	1	3	4	5	6	#52-3-13-13
2	1	3	4	5	7	#52-3-13-13
3	2	6	5	4	12	#52-3-13-46
4	2	7	5	4	12	#52-3-13-46
5	3	1	2	3	4	#13-13-13-64 (does not exit, using 0-13-13-13)
6	4	2	3	4	5	#3-13-13-13 (does not exist, using 0-13-13-13)
7	5	5	4	3	13	#3-13-13-46
8	5	5	4	3	14	#3-13-13-46
9	6	2	3	4	12	#13-13-13-46
10	6	4	3	2	15	#13-13-13-46
11	6	4	3	2	16	#13-13-13-46
12	7	2	3	4	8	#13-13-13-53
13	8	12	4	3	13	#46-13-13-46
14	8	12	4	3	14	#46-13-13-46
15	8	13	3	2	15	#46-13-13-46
16	8	13	3	2	16	#46-13-13-46
17	8	14	3	2	15	#46-13-13-46
18	8	14	3	2	16	#46-13-13-46
19	9	8	4	3	13	#46-13-13-53
20	9	8	4	3	14	#46-13-13-53
21	10	9	8	4	12	#46-13-53-54
22	10	10	8	4	12	#46-13-53-54
23	10	11	8	4	12	#46-13-53-54
24	11	15	2	1	17	#46-13-64-52
25	11	15	2	1	18	#46-13-64-52
26	11	16	2	1	17	#46-13-64-52
27	11	16	2	1	18	#46-13-64-52
28	11	17	1	19	20	#46-13-64-52
29	11	18	1	19	20	#46-13-64-52
30	11	17	1	19	21	#46-13-64-52
31	11	18	1	19	21	#46-13-64-52
32	11	17	1	19	22	#46-13-64-52
33	11	18	1	19	22	#46-13-64-52
34	12	5	4	8	9	#3-13-53-54
35	12	5	4	8	10	#3-13-53-54
36	12	5	4	8	11	#3-13-53-54
37	13	3	4	8	9	#13-13-53-54
38	13	3	4	8	10	#13-13-53-54
39	13	3	4	8	11	#13-13-53-54
40	14	3	2	1	17	#13-13-64-52 (does not exist, using 48-13-64-52)
41	14	3	2	1	18	#13-13-64-52 (does not exist, using 48-13-64-52)
42	14	3	2	1	19	#13-13-64-13 (does not exist, using 48-13-64-52)
43	11	15	2	1	19	#46-13-64-13 (does not exist, using 46-13-64-52)
44	11	16	2	1	19	#46-13-64-13 (does not exist, using 46-13-64-52)
45	15	1	2	3	13	#46-13-13-64 (does not exist, using 24-13-13-46)
46	15	1	2	3	14	#46-13-13-64 (does not exist, using 24-13-13-46)
47	16	6	5	4	8	#52-3-13-53 (does not exist, using 52-3-13-44)
48	16	7	5	4	8	#52-3-13-53 (does not exist, using 52-3-13-44)
49	11	2	1	19	20	#46-13-64-13 (does not exist, using 46-13-64-52)
50	11	2	1	19	21	#46-13-64-13 (does not exist, using 46-13-64-52)
51	11	2	1	19	22	#46-13-64-13 (does not exist, using 46-13-64-52)
52	17	4	6	5	7	#0-0-3-52 (improper)

Bond Coeffs				

1	9.1930	1.8430	#13-64
2	11.6214	1.5290	#13-13
3	13.7462	1.5220	#3-13
4	28.4463	1.2500	#3-52
5	15.9143	1.4710	#13-53
6	18.8197	1.0100	#53-54
7	14.7435	1.0900	#13-46
8	22.7657	1.4800	#52-64		

Angle Coeffs				

1	3.0354	117.00	#13-3-52
2	3.4691	126.00	#52-3-52
3	2.5303	112.70	#13-13-13
4	2.7319	111.10	#3-13-13
5	1.4310	107.80	#46-13-46
6	1.5177	109.50	#3-13-46
7	1.6261	110.70	#13-13-46
8	1.5177	109.50	#46-13-53
9	3.4691	111.20	#3-13-53
10	3.4691	111.20	#13-13-53
11	1.7779	109.50	#46-13-64
12	1.8646	109.50	#13-13-64
13	1.5177	109.50	#13-53-54
14	1.5177	109.50	#54-53-54
15	1.9513	109.50	#13-64-52
16	6.0709	119.90	#52-64-52
17	1.9513	109.50	#13-64-13 (does not exist, using 13-64-20 instead)

Dihedral Coeffs

1	0.0000	0.0356	0.0000	0.0000	#52-3-13-13
2	0.0000	0.0000	0.0000	0.0000	#52-3-13-46
3	0.0742	-0.0217	0.0287	0.0000	#13-13-13-64 (does not exit, using 0-13-13-13)
4	0.0742	-0.0217	0.0287	0.0000	#3-13-13-13 (does not exist, using 0-13-13-13)
5	0.0000	0.0000	-0.0043	0.0000	#3-13-13-46
6	0.0000	0.0000	0.0130	0.0000	#13-13-13-46
7	0.1185	-0.0099	0.0210	0.0000	#13-13-13-53
8	0.0000	0.0000	0.0130	0.0000	#46-13-13-46
9	0.0000	0.0000	0.0167	0.0000	#46-13-13-53
10	0.0000	0.0000	0.0130	0.0000	#46-13-53-54
11	0.0000	0.0000	0.0108	0.0000	#46-13-64-52 (also using this for 46-13-64-13, which does not exist)
12	0.0000	0.0000	0.0150	0.0000	#3-13-53-54
13	0.0000	0.0000	0.0150	0.0000	#13-13-53-54
14	0.0000	0.0000	0.0000	0.0000	#13-13-64-52 or 13-13-64-13 (do not exist, using 48-13-64-52)
15	0.0000	0.0000	0.0201	0.0000	#46-13-13-64 (does not exist, using 24-13-13-46)
16	0.0000	0.0356	0.0000	0.0000	#52-3-13-53 (does not exist, using 52-3-13-44)
17	0.0000	0.9106	0.0000	0.0000	#0-0-3-52 (improper)

