LAMMPS Ibuprofen data file #created by Amélie Lemay, summer 2021, checked by Jennie		

32 atoms		
32 bonds		
57 angles
85 dihedrals	#78 proper, 7 improper	

9 atom types	
7 bond types		
13 angle types
17 dihedral types #15 proper, 2 improper		

-20.0 20.0 xlo xhi		
-20.0 20.0 ylo yhi		
-20.0 20.0 zlo zhi		

Masses		

1	15.999
2	12.011
3	12.011
4	12.011
5	12.011
6	12.011
7	12.011
8	1.008
9	1.008				

Atoms						

1	1	1	-0.8	-4.432241854	-0.9496800366	0.8590488697	#214(52)	"Carboxylate COO-"
2	1	1	-0.8	-2.760789349	-1.79948965	-0.4314458189	#214(52)	"Carboxylate COO-"
3	1	2	-0.06	3.937538252	-0.4437883977	0.0288024799	#82(13)	"Alkane >CH-"
4	1	3	-0.005	3.147588052	0.8117880652	-0.3978632881	#94(13)	"Ethyl Benzene -CH2-"
5	1	4	-0.115	1.649624199	0.7417184502	-0.2378924449	#90(48)	"Aromatic C"
6	1	4	-0.115	-1.160161418	0.5610245675	0.0811913481	#90(48)	"Aromatic C"
7	1	5	-0.045	-2.666300098	0.503929957	0.2624674655	#217(13), charge adjusted	"Carboxylate R2CH-COO-"
8	1	6	-0.18	3.765111991	-0.7798957196	1.510717389	#80(13)	"Alkane CH3-"
9	1	6	-0.18	3.624936352	-1.66637265	-0.8353404065	#80(13)	"Alkane CH3-"
10	1	4	-0.115	0.8463789285	0.222168815	-1.258784706	#90(48)	"Aromatic C"
11	1	4	-0.115	1.034458368	1.180015142	0.9409329044	#90(48)	"Aromatic C"
12	1	4	-0.115	-0.5389563133	0.1323824096	-1.098869503	#90(48)	"Aromatic C"
13	1	4	-0.115	-0.3522149375	1.088982882	1.098243015	#90(48)	"Aromatic C"
14	1	6	-0.18	-3.389297261	1.361880029	-0.778019739	#80(13)	"Alkane CH3-"
15	1	7	0.7	-3.331763642	-0.8862102537	0.2274809095	#213(3)	"Carboxylate COO-"
16	1	8	0.06	4.999302902	-0.2079117718	-0.1255297328	#85(46)	"Alkane H-C"
17	1	8	0.06	3.377925649	1.042398569	-1.446910447	#85(46)	"Alkane H-C"
18	1	8	0.06	3.520432323	1.675902602	0.1687890231	#85(46)	"Alkane H-C"
19	1	8	0.06	-2.900115724	0.9277258945	1.249582224	#85(46)	"Alkane H-C"
20	1	8	0.06	2.748698988	-1.118575245	1.735813666	#85(46)	"Alkane H-C"
21	1	8	0.06	3.985561152	0.0906880786	2.137040252	#85(46)	"Alkane H-C"
22	1	8	0.06	4.450965054	-1.582272322	1.803688929	#85(46)	"Alkane H-C"
23	1	8	0.06	4.312178586	-2.486578177	-0.600619396	#85(46)	"Alkane H-C"
24	1	8	0.06	2.607391242	-2.033921149	-0.6694134568	#85(46)	"Alkane H-C"
25	1	8	0.06	3.738769115	-1.432614967	-1.898985294	#85(46)	"Alkane H-C"
26	1	9	0.115	1.287698364	-0.1389542289	-2.183467967	#91(49)	"Aromatic H-C"
27	1	9	0.115	1.629205947	1.586099271	1.754322956	#91(49)	"Aromatic H-C"
28	1	9	0.115	-1.140426973	-0.309668208	-1.891645733	#91(49)	"Aromatic H-C"
29	1	9	0.115	-0.8040573372	1.428148619	2.027099256	#91(49)	"Aromatic H-C"
30	1	8	0.06	-2.998446466	2.385726592	-0.7811854002	#85(46)	"Alkane H-C"
31	1	8	0.06	-3.278564426	0.9577825857	-1.790602067	#85(46)	"Alkane H-C"
32	1	8	0.06	-4.463029664	1.417970245	-0.5660452872	#85(46)	"Alkane H-C"

Bonds						

1	1	10	26	#48-49
2	2	9	25	#13-46
3	1	12	28	#48-49
4	2	14	31	#13-46
5	2	4	17	#13-46
6	3	10	12	#48-48
7	3	5	10	#48-48
8	3	6	12	#48-48
9	2	9	24	#13-46
10	2	9	23	#13-46
11	4	3	9	#13-13
12	2	14	30	#13-46
13	2	14	32	#13-46
14	4	7	14	#13-13
15	7	4	5	#13-48
16	4	3	4	#13-13
17	2	4	18	#13-46
18	3	5	11	#48-48
19	2	3	16	#13-46
20	4	3	8	#13-13
21	6	2	15	#3-52
22	7	6	7	#13-48
23	3	6	13	#48-48
24	5	7	15	#3-13
25	6	1	15	#3-52
26	2	7	19	#13-46
27	3	11	13	#48-48
28	1	11	27	#48-49
29	1	13	29	#48-49
30	2	8	20	#13-46
31	2	8	22	#13-46
32	2	8	21	#13-46

Angles				

1	1	2	15	7	#13-3-52
2	1	1	15	7	#13-3-52
3	2	1	15	2	#52-3-52
4	3	4	3	9	#13-13-13
5	3	4	3	8	#13-13-13
6	3	8	3	9	#13-13-13
7	4	14	7	15	#3-13-13
8	5	17	4	18	#46-13-46
9	5	20	8	22	#46-13-46
10	5	20	8	21	#46-13-46
11	5	21	8	22	#46-13-46
12	5	23	9	25	#46-13-46
13	5	23	9	24	#46-13-46
14	5	24	9	25	#46-13-46
15	5	30	14	31	#46-13-46
16	5	30	14	32	#46-13-46
17	5	31	14	32	#46-13-46
18	6	15	7	19	#3-13-46
19	7	3	9	25	#13-13-46
20	7	3	9	24	#13-13-46
21	7	3	9	23	#13-13-46
22	7	3	8	20	#13-13-46
23	7	3	8	22	#13-13-46
24	7	3	8	21	#13-13-46
25	7	3	4	17	#13-13-46
26	7	3	4	18	#13-13-46
27	7	4	3	16	#13-13-46
28	7	7	14	31	#13-13-46
29	7	7	14	30	#13-13-46
30	7	7	14	32	#13-13-46
31	7	8	3	16	#13-13-46
32	7	9	3	16	#13-13-46
33	7	14	7	19	#13-13-46
34	8	5	4	17	#46-13-48
35	8	5	4	18	#46-13-48
36	8	6	7	19	#46-13-48
37	9	6	7	15	#3-13-48
38	10	3	4	5	#13-13-48
39	10	6	7	14	#13-13-48
40	11	5	10	12	#48-48-48
41	11	5	11	13	#48-48-48
42	11	6	12	10	#48-48-48
43	11	6	13	11	#48-48-48
44	11	10	5	11	#48-48-48
45	11	12	6	13	#48-48-48
46	12	4	5	10	#13-48-48
47	12	4	5	11	#13-48-48
48	12	7	6	12	#13-48-48
49	12	7	6	13	#13-48-48
50	13	5	10	26	#48-48-49
51	13	5	11	27	#48-48-49
52	13	6	12	28	#48-48-49
53	13	6	13	29	#48-48-49
54	13	10	12	28	#48-48-49
55	13	11	13	29	#48-48-49
56	13	12	10	26	#48-48-49
57	13	13	11	27	#48-48-49

Dihedrals

1	1	1	15	7	14	#52-3-13-13
2	1	2	15	7	14	#52-3-13-13
3	2	1	15	7	19	#52-3-13-46
4	2	2	15	7	19	#52-3-13-46
5	3	5	4	3	9	#0-13-13-13
6	3	5	4	3	8	#0-13-13-13
7	4	15	7	14	31	#3-13-13-46
8	4	15	7	14	30	#3-13-13-46
9	4	15	7	14	32	#3-13-13-46
10	5	4	3	9	25	#13-13-13-46
11	5	4	3	9	24	#13-13-13-46
12	5	4	3	9	23	#13-13-13-46
13	5	4	3	8	20	#13-13-13-46
14	5	4	3	8	22	#13-13-13-46
15	5	4	3	8	21	#13-13-13-46
16	5	8	3	9	25	#13-13-13-46
17	5	8	3	9	24	#13-13-13-46
18	5	8	3	9	23	#13-13-13-46
19	5	9	3	8	20	#13-13-13-46
20	5	9	3	8	22	#13-13-13-46
21	5	9	3	8	21	#13-13-13-46
22	5	8	3	4	17	#13-13-13-46
23	5	8	3	4	18	#13-13-13-46
24	5	9	3	4	17	#13-13-13-46
25	5	9	3	4	18	#13-13-13-46
26	6	16	3	9	25	#46-13-13-46
27	6	16	3	9	24	#46-13-13-46
28	6	16	3	9	23	#46-13-13-46
29	6	16	3	8	20	#46-13-13-46
30	6	16	3	8	22	#46-13-13-46
31	6	16	3	8	21	#46-13-13-46
32	6	16	3	4	17	#46-13-13-46
33	6	16	3	4	18	#46-13-13-46
34	6	19	7	14	31	#46-13-13-46
35	6	19	7	14	30	#46-13-13-46
36	6	19	7	14	32	#46-13-13-46
37	7	5	4	3	16	#46-13-13-48
38	7	6	7	14	30	#46-13-13-48
39	7	6	7	14	31	#46-13-13-48
40	7	6	7	14	32	#46-13-13-48
41	8	12	6	7	15	#0-13-48-48
42	8	13	6	7	15	#0-13-48-48
43	9	3	4	5	10	#13-13-48-48
44	9	3	4	5	11	#13-13-48-48
45	9	12	6	7	14	#13-13-48-48
46	9	13	6	7	14	#13-13-48-48
47	10	10	5	4	17	#46-13-48-48
48	10	11	5	4	17	#46-13-48-48
49	10	10	5	4	18	#46-13-48-48
50	10	11	5	4	18	#46-13-48-48
51	10	12	6	7	19	#46-13-48-48
52	10	13	6	7	19	#46-13-48-48
53	11	4	5	10	12	#13-48-48-48
54	11	4	5	11	13	#13-48-48-48
55	11	7	6	12	10	#13-48-48-48
56	11	7	6	13	11	#13-48-48-48
57	12	4	5	10	26	#13-48-48-49
58	12	4	5	11	27	#13-48-48-49
59	12	7	6	12	28	#13-48-48-49
60	12	7	6	13	29	#13-48-48-49
61	13	5	10	12	6	#48-48-48-48
62	13	5	11	13	6	#48-48-48-48
63	13	10	12	6	13	#48-48-48-48
64	13	10	5	11	13	#48-48-48-48
65	13	11	5	10	12	#48-48-48-48
66	13	11	13	6	12	#48-48-48-48
67	14	5	10	12	28	#48-48-48-49
68	14	5	11	13	29	#48-48-48-49
69	14	6	12	10	26	#48-48-48-49
70	14	6	13	11	27	#48-48-48-49
71	14	10	5	11	27	#48-48-48-49
72	14	11	5	10	26	#48-48-48-49
73	14	12	6	13	29	#48-48-48-49
74	14	13	6	12	28	#48-48-48-49
75	15	26	10	12	28	#49-48-48-49
76	15	27	11	13	29	#49-48-48-49
77	1	2	15	7	6	#52-3-13-48 does not exist, using 52-3-13-13
78	1	1	15	7	6	#52-3-13-48 does not exist, using 52-3-13-13
79	16	1	7	15	2	#0-0-3-52 (improper)
80	17	4	10	5	11	#0-0-48-0 (improper)
81	17	5	26	10	12	#0-0-48-0 (improper)
82	17	5	27	11	13	#0-0-48-0 (improper)
83	17	6	28	12	10	#0-0-48-0 (improper)
84	17	6	29	13	11	#0-0-48-0 (improper)
85	17	7	12	6	13	#0-0-48-0 (improper)

Bond Coeffs				

1	15.91434181	1.08	#48-49
2	14.74353193	1.09	#13-46
3	20.33740139	1.4	#48-48
4	11.62137222	1.529	#13-13
5	13.74617535	1.522	#3-13
6	28.44634395	1.25	#3-52
7	13.74617535	1.51	#13-48		

Angle Coeffs				

1	3.035433044	117	#13-3-52
2	3.469066335	126	#52-3-52
3	2.530250258	112.7	#13-13-13
4	2.731889739	111.1	#3-13-13
5	1.430989863	107.8	#46-13-46
6	1.517716522	109.5	#3-13-46
7	1.626124845	110.7	#13-13-46
8	1.517716522	109.5	#46-13-48
9	2.731889739	112	#3-13-48
10	2.731889739	114	#13-13-48
11	2.731889739	120	#48-48-48
12	3.035433044	120	#13-48-48
13	1.517716522	120	#48-48-49

Dihedral Coeffs

1	0	0.03555792994	0	0	#52-3-13-13
2	0	0	0	0	#52-3-13-46
3	0.07419465625	-0.0216816646	0.02874988726	0	#0-13-13-13
4	0	0	-0.004336332919	0	#3-13-13-46
5	0	0	0.01300899876	0	#13-13-13-46
6	0	0	0.01300899876	0	#46-13-13-46
7	0	0	0.02003385809	0	#46-13-13-48
8	0	0	0	0	#0-13-48-48
9	0	0	0	0	#13-13-48-48
10	0	0	0	0	#46-13-48-48
11	0	0.3143841367	0	0	#13-48-48-48
12	0	0.3143841367	0	0	#13-48-48-49
13	0	0.3143841367	0	0	#48-48-48-48
14	0	0.3143841367	0	0	#48-48-48-49
15	0	0.3143841367	0	0	#49-48-48-49
16	0	0.9106299131	0	0	#0-0-3-52 (improper)
17	0	0.216816646	0	0	#0-0-48-0 (improper)

