LAMMPS PFBS data file, updated by Jennie, summer 2021		

17 atoms		
16 bonds		
30 angles
36 dihedrals		

7 atom types	
4 bond types		
7 angle types
7 dihedral types	

-10.0 10.0 xlo xhi		
-10.0 10.0 ylo yhi		
-10.0 10.0 zlo zhi		

Masses		

1 18.998	#F1PFBS	#795(1)				
2 12.011	#C1PFBS	#791(13)				
3 12.011	#C2PFBS	#792(13)
4 12.011	#C3PFBS	#792(13) - charge adjusted (Lopes paper)
5 18.998	#F2PFBS	#795(1) - charge adjusted (Lopes paper)				
6 32.06		#SPFBS #434(79) - Lopes paper
7 15.999	#OPFBS #435(23) - Lopes paper

Atoms						

1	1	1	-0.12	-5.0131326760      0.4872915432      0.1931041478
2	1	1	-0.12	-3.8638248331     -0.8855000216     -1.0299561679
3	1	1	-0.12	-3.7367152822     -0.9875083702      1.1438823420
4	1	2	0.36	-3.8050448177     -0.1351214421      0.0952833031
5	1	3	0.24	-2.6792945866      0.8820761317      0.0759129735
6	1	1	-0.12	-2.8654049412      1.7359743150     -0.9730797501 
7	1	1	-0.12	-2.7545393289      1.6558029147      1.1983460953
8	1	3	0.24	-1.3512749552      0.1697042965     -0.0169605227
9	1	1	-0.12	-1.3902342971     -0.6437039701     -1.1097789540
10	1	1	-0.12	-1.2293614953     -0.6427003490      1.0668942814
11	1	4	0.23	-0.2472004626      1.1993221145     -0.1139399975
12	1	5	-0.16	-0.4086624693      1.9269104008     -1.2708069235
13	1	5	-0.16	-0.3811835876      2.1221139154      0.8976308233
14	1	6	1.02	1.3700802091      0.3664393351     -0.0392813140
15	1	7	-0.6433	1.2607759947     -0.7987049283     -0.9175937123 
16	1	7	-0.6434	1.5488462354      0.0266120204      1.3749534472  
17	1	7	-0.6433	2.3247272446      1.3693061662     -0.5221873118

Bonds						

1	1	1	4		
2	1	2	4		
3	1	3	4		
4	2	4	5
5	1	5	6
6	1	5	7
7	2	5	8
8	1	8	9
9	1	8	10
10	2	8	11
11	1	11	12
12	1	11	13
13	3	11	14
14	4	14	15
15	4	14	16
16	4	14	17

Angles				

1	1	1	4	2
2	1	1	4	3
3	1	2	4	3
4	2	1	4	5
5	2	2	4	5
6	2	3	4	5
7	3	4	5	8
8	2	6	5	4
9	2	7	5	4
10	1	6	5	7
11	2	6	5	8
12	2	7	5	8
13	3	5	8	11
14	2	9	8	5
15	2	10	8	5
16	1	9	8	10
17	2	9	8	11
18	2	10	8	11
19	4	8	11	14
20	2	12	11	8
21	2	13	11	8
22	1	12	11	13
23	5	12	11	14
24	5	13	11	14
25	6	11	14	15
26	6	11	14	16
27	6	11	14	17
28	7	15	14	16
29	7	15	14	17
30	7	16	14	17

Dihedrals

1	1	1	4	5	6	# 1-13-13-1
2	1	1	4	5	7	# 1-13-13-1
3	1	2	4	5	6	# 1-13-13-1
4	1	2	4	5	7	# 1-13-13-1
5	1	3	4	5	6	# 1-13-13-1
6	1	3	4	5	7	# 1-13-13-1
7	2	1	4	5	8	# 1-13-13-13
8	2	2	4	5	8	# 1-13-13-13
9	2	3	4	5	8	# 1-13-13-13
10	3	4	5	8	11	# 13-13-13-13
11	2	9	8	5	4	# 1-13-13-13
12	2	10	8	5	4	# 1-13-13-13
13	1	6	5	8	9	# 1-13-13-1
14	1	6	5	8	10	# 1-13-13-1
15	1	7	5	8	9	# 1-13-13-1
16	1	7	5	8	10	# 1-13-13-1
17	2	6	5	8	11	# 1-13-13-13	
18	2	7	5	8	11	# 1-13-13-13
19	4	5	8	11	14	# 13-13-13-79
20	2	12	11	8	5	# 1-13-13-13
21	2	13	11	8	5	# 1-13-13-13
22	1	9	8	11	12	# 1-13-13-1
23	1	9	8	11	13	# 1-13-13-1
24	1	10	8	11	12	# 1-13-13-1
25	1	10	8	11	13	# 1-13-13-1
26	5	8	11	14	15	# 13-13-79-23
27	5	8	11	14	16	# 13-13-79-23
28	5	8	11	14	17	# 13-13-79-23
29	6	12	11	14	15	# 1-13-79-23
30	6	12	11	14	16	# 1-13-79-23
31	6	12	11	14	17	# 1-13-79-23
32	6	13	11	14	15	# 1-13-79-23
33	6	13	11	14	16	# 1-13-79-23
34	6	13	11	14	17	# 1-13-79-23
35	7	9	8	11	14 	# 1-13-13-79 estimated as 46-13-13-79
36	7	10	8	11	14 	# 1-13-13-79 estimated as 46-13-13-79

Bond Coeffs				

1	15.915	1.360	#FC
2	11.622	1.529	#CC
3	20.418	1.818	#CSfromLopes	
4	55.252	1.442	#SOfromLopes

Angle Coeffs				

1	3.339	109.10	#FCF	
2	2.168	109.50	#FCC
3	2.530	112.70	#CCC
4	2.168	108.60	#CCS
5	3.596	111.80	#FCSfromLopes
6	4.509	102.60	#CSOfromLopes
7	5.022	115.30	#OSOfromLopes


Dihedral Coeffs

1	-0.108	0.0	0.011	0.0	#FCCF
2	0.013	-0.017	0.017	0.0	#FCCC
3	0.287	0.041	-0.060	-0.092	#CCCC
4	0.055	-0.009	0.020	0.0	#CCCS
5	0.0	0.0	0.0144	0.0	#CCSOfromLopes
6	0.0	0.0	0.0151	0.0	#FCSOfromLopes
7	0.0	0.0	0.0196	0.0	#estimated as 46-13-13-79

