LAMMPS PFOS data file, updated by Jennie, summer 2021		

29 atoms		
28 bonds		
54 angles
72 dihedrals		

7 atom types	
4 bond types		
7 angle types
7 dihedral types	

-10.0 10.0 xlo xhi		
-10.0 10.0 ylo yhi		
-10.0 10.0 zlo zhi		

Masses		

1 18.998	#F1PFBS	#795(1)				
2 12.011	#C1PFBS	#791(13)				
3 12.011	#C2PFBS	#792(13)
4 12.011	#C3PFBS	#792(13) - charge adjusted (Lopes paper)
5 18.998	#F2PFBS	#795(1) - charge adjusted (Lopes paper)				
6 32.06		#SPFBS #434(79) - Lopes paper
7 15.999	#OPFBS #435(23) - Lopes paper

Atoms	

1	1	2	0.36    -5.4425780982     -0.9441915704      0.0027293926                 
2	1	3	0.24    -4.1769182623     -0.1203598680      0.1235743469                 
3	1	3	0.24    -2.9648391184     -0.9734348035     -0.1873011007                 
4	1	3	0.24    -1.6966509860     -0.1449920373     -0.0769316921                 
5	1	3	0.24    -0.4447024903     -0.9619854348     -0.3657730800                 
6	1	3	0.24     0.7906235574     -0.0765462987     -0.2613067288                 
7	1	1	-0.12   -5.6217469786     -1.4431197390     -1.2422318040                 
8	1	1	-0.12   -6.5408758753     -0.1924887086      0.2781787530                 
9	1	1	-0.12   -5.4678191776     -1.9896075341      0.8613211922                 
10	1	1	-0.12   -4.0903304832      0.4035974252      1.3803591737                
11	1	1	-0.12   -4.2449037860      0.9492979784     -0.7204783719                 
12	1	1	-0.12   -1.7762053270      0.9116462279     -0.9326389581                
13	1	1	-0.12   -0.3792541337     -2.0012477086      0.5093921200 
14	1	1	-0.12	 0.7938300057      0.5256012311      0.9627322165
15	1	1	-0.12	 0.6817207456      0.9342874378     -1.1693523925 
16	1	1	-0.12	-0.5355191775     -1.5173413318     -1.6042955666
17	1	1	-0.12	-3.0780694746     -1.5011964495     -1.4360393086
18	1	1	-0.12	-2.9169558200     -2.0335988032      0.6638316957
19	1	1	-0.12	-1.6250151740      0.3925581700      1.1733632501
20	1	3	0.24	 2.0791164469     -0.8538431694     -0.4687009029 
21	1	4	0.23	 3.2474960462      0.1009183686     -0.3203796157  
22	1	1	-0.12	 2.0350099512     -1.4480478758     -1.6913395910
23	1	1	-0.12	 2.0993466249     -1.8548216271      0.4549024878
24	1	6	1.02 	 4.8229661033     -0.7695649845     -0.6100808012
25	1	5	-0.16 	 3.2034285053      0.6805152266      0.9272453029
26      1	5	-0.16 	 3.0916915777      1.1543722169     -1.1939969977               
27	1       7 	-0.6433	 4.6536011013     -2.1165406010     -0.0615676128 	            
28	1       7 	-0.6434	 5.0021234645     -0.7454785119     -2.0634144866	                
29	1       7 	-0.6433	 5.8204383997      0.0256209137      0.1136470587            

Bonds						

1	1	1	7		
2	1	1	8		
3	1	1	9		
4	2	1	2
5	1	2	10
6	1	2	11
7	2	2	3
8	1	3	17
9	1	3	18
10	2	3	4
11	1	4	12
12	1	4	19
13	2	4	5
14	1	5	13
15	1	5	16
16	2	5	6
17	1	6	14
18	1	6	15
19	2	6	20
20	1	20	22
21	1	20	23
22	2	20	21
23	1	21	25		
24	1	21	26
25	3	21	24
26	4	24	27
27	4	24	28
28	4	24	29

Angles				

1	1	7	1	8
2	1	7	1	9
3	1	8	1	9
4	2	7	1	2
5	2	8	1	2
6	2	9	1	2
7	3	1	2	3
8	2	1	2	10
9	2	1	2	11
10	1	10	2	11
11	2	10	2	3
12	2	11	2	3
13	3	2	3	4
14	2	2	3	17
15	2	2	3	18
16	1	17	3	18
17	2	17	3	4
18	2	18	3	4
19	3	3	4	5
20	2	3	4	12
21	2	3	4	19
22	1	12	4	19
23	2	12	4	5
24	2	19	4	5
25	3	4	5	6
26	2	4	5	13	
27	2	4	5	16	
28	1	13	5	16
29	2	13	5	6
30	2	16	5	6
31	3	5	6	20
32	2	5	6	14
33	2	5	6	15
34	1	14	6	15
35	2	14	6	20
36	2	15	6	20
37	3	6	20	21
38	2	6	20	22
39	2	6	20	23
40	1	22	20	23
41	2	22	20	21
42	2	23	20	21
43	4	20	21	24
44	2	20	21	25
45	2	20	21	26
46	1	25	21	26
47	5	25	21	24
48	5	26	21	24
49	6	21	24	27
50	6	21	24	28
51	6	21	24	29
52	7	27	24	28
53	7	27	24	29
54	7	28	24	29

Dihedrals

1	1	7	1	2	10	# 1-13-13-1
2	1	7	1	2	11	# 1-13-13-1
3	1	8	1	2	10	# 1-13-13-1
4	1	8	1	2	11	# 1-13-13-1
5	1	9	1	2	10	# 1-13-13-1
6	1	9	1	2	11	# 1-13-13-1
7	2	7	1	2	3	# 1-13-13-13
8	2	8	1	2	3	# 1-13-13-13
9	2	9	1	2	3	# 1-13-13-13
10	3	1	2	3	4	# 13-13-13-13
11	2	1	2	3	17	# 1-13-13-13
12	2	1	2	3	18	# 1-13-13-13
13	1	10	2	3	17	# 1-13-13-1
14	1	10	2	3	18	# 1-13-13-1
15	1	11	2	3	17	# 1-13-13-1
16	1	11	2	3	18	# 1-13-13-1
17	2	10	2	3	4	# 1-13-13-13	
18	2	11	2	3	4	# 1-13-13-13
19	3	2	3	4	5	# 13-13-13-13
20	2	2	3	4	12	# 1-13-13-13
21	2	2	3	4	19	# 1-13-13-13
22	1	17	3	4	12	# 1-13-13-1
23	1	17	3	4	19	# 1-13-13-1
24	1	18	3	4	12	# 1-13-13-1
25	1	18	3	4	19	# 1-13-13-1
26	2	17	3	4	5	# 1-13-13-13	
27	2	18	3	4	5	# 1-13-13-13
28	3	3	4	5	6	# 13-13-13-13
29	2	3	4	5	13	# 1-13-13-13
30	2	3	4	5	16	# 1-13-13-13
31	1	12	4	5	13	# 1-13-13-1
32	1	12	4	5	16	# 1-13-13-1
33	1	19	4	5	13	# 1-13-13-1
34	1	19	4	5	16	# 1-13-13-1
35	2	12	4	5	6	# 1-13-13-13
36	2	19	4	5	6	# 1-13-13-13
37	3	4	5	6	20	# 13-13-13-13
38	2	4	5	6	14	# 1-13-13-13
39	2	4	5	6	15	# 1-13-13-13
40	1	13	5	6	14	# 1-13-13-1
41	1	13	5	6	15	# 1-13-13-1
42	1	16	5	6	14	# 1-13-13-1
43	1	16	5	6	15	# 1-13-13-1
44	2	13	5	6	20	# 1-13-13-13
45	2	16	5	6	20	# 1-13-13-13
46	3	5	6	20	21	# 13-13-13-13
47	2	5	6	20	22	# 1-13-13-13
48	2	5	6	20	23	# 1-13-13-13
49	1	14	6	20	22	# 1-13-13-1
50	1	14	6	20	23	# 1-13-13-1
51	1	15	6	20	22	# 1-13-13-1
52	1	15	6	20	23	# 1-13-13-1
53	2	14	6	20	21	# 1-13-13-13
54	2	15	6	20	21	# 1-13-13-13
55	4	6	20	21	24	# 13-13-13-79
56	2	6	20	21	25	# 1-13-13-13
57	2	6	20	21	26	# 1-13-13-13
58	1	22	20	21	25	# 1-13-13-1
59	1	22	20	21	26	# 1-13-13-1
60	1	23	20	21	25	# 1-13-13-1
61	1	23	20	21	26	# 1-13-13-1
62	5	20	21	24	27	# 13-13-79-23
63	5	20	21	24	28	# 13-13-79-23
64	5	20	21	24	29	# 13-13-79-23
65	6	25	21	24	27	# 1-13-79-23
66	6	25	21	24	28	# 1-13-79-23
67	6	25	21	24	29	# 1-13-79-23
68	6	26	21	24	27	# 1-13-79-23
69	6	26	21	24	28	# 1-13-79-23
70	6	26	21	24	29	# 1-13-79-23
71	7	22	20	21	24 	# 1-13-13-79 estimated as 46-13-13-79
72	7	23	20	21	24 	# 1-13-13-79 estimated as 46-13-13-79

Bond Coeffs				

1	15.915	1.360	#FC
2	11.622	1.529	#CC
3	20.418	1.818	#CSfromLopes	
4	55.252	1.442	#SOfromLopes

Angle Coeffs				

1	3.339	109.10	#FCF	
2	2.168	109.50	#FCC
3	2.530	112.70	#CCC
4	2.168	108.60	#CCS
5	3.596	111.80	#FCSfromLopes
6	4.509	102.60	#CSOfromLopes
7	5.022	115.30	#OSOfromLopes


Dihedral Coeffs

1	-0.108	0.0	0.011	0.0	#FCCF
2	0.013	-0.017	0.017	0.0	#FCCC
3	0.287	0.041	-0.060	-0.092	#CCCC
4	0.055	-0.009	0.020	0.0	#CCCS
5	0.0	0.0	0.0144	0.0	#CCSOfromLopes
6	0.0	0.0	0.0151	0.0	#FCSOfromLopes
7	0.0	0.0	0.0196	0.0	#estimated as 46-13-13-79

