LAMMPS Fluorene data file	 #created by Philip Maruri, summer 2020, checked by Ian Bourg	

23	atoms
25	bonds
42	angles
74	dihedrals

6	atom types
6	bond types
11	angle types
19	dihedral types

-5.0  5.0 xlo xhi		
-8.0  8.0 ylo yhi		
-6.0  6.0 zlo zhi		

Masses		

1	12.011
2	12.011
3	12.011
4	12.011
5	1.008
6	1.008

Atoms						

1	1	1	-0.0050	0.0000	1.8419	0.0004	#94(13)
2	1	2	-0.0575	1.1774	0.8881	0.0004	#833(48)
3	1	2	-0.0575	-1.1774	0.8881	0.0003	#833(48)
4	1	3	0.0000	0.7240	-0.4493	0.0003	#460(86)
5	1	3	0.0000	-0.7240	-0.4493	0.0002	#460(86)
6	1	4	-0.1150	2.5278	1.1955	0.0004	#90(48)
7	1	4	-0.1150	-2.5278	1.1955	0.0003	#90(48)
8	1	4	-0.1150	1.6295	-1.4968	0.0002	#90(48)
9	1	4	-0.1150	-1.6296	-1.4968	0.0001	#90(48)
10	1	4	-0.1150	3.4398	0.1382	0.0004	#90(48)
11	1	4	-0.1150	-3.4398	0.1383	0.0002	#90(48)
12	1	4	-0.1150	2.9955	-1.1952	0.0003	#90(48)
13	1	4	-0.1150	-2.9955	-1.1952	0.0002	#90(48)
14	1	5	0.0600	0.0000	2.4562	0.9054	#85(46)
15	1	5	0.0600	0.0000	2.4563	-0.9046	#85(46)
16	1	6	0.1150	2.8711	2.2245	0.0005	#91(49)
17	1	6	0.1150	-2.8711	2.2245	0.0004	#91(49)
18	1	6	0.1150	1.2969	-2.5290	0.0001	#91(49)
19	1	6	0.1150	-1.2970	-2.5290	0.0001	#91(49)
20	1	6	0.1150	4.5072	0.3470	0.0004	#91(49)
21	1	6	0.1150	-4.5072	0.3470	0.0003	#91(49)
22	1	6	0.1150	3.7241	-2.0026	0.0002	#91(49)
23	1	6	0.1150	-3.7241	-2.0026	0.0001	#91(49)

Bonds						

1	1	1	14	#13-46
2	1	1	15	#13-46
3	2	1	2	#13-48
4	2	1	3	#13-48
5	3	2	4	#48-86
6	3	3	5	#48-86
7	4	5	4	#86-86
8	5	3	7	#48-48
9	5	7	11	#48-48
10	5	11	13	#48-48
11	5	13	9	#48-48
12	3	9	5	#48-86
13	5	2	6	#48-48
14	5	6	10	#48-48
15	5	10	12	#48-48
16	5	12	8	#48-48
17	3	8	4	#48-86
18	6	7	17	#48-49
19	6	11	21	#48-49
20	6	13	23	#48-49
21	6	9	19	#48-49
22	6	8	18	#48-49
23	6	12	22	#48-49
24	6	10	20	#48-49
25	6	6	16	#48-49

Angles				

1	1	14	1	15	#46-13-46
2	2	14	1	2	#46-13-48
3	2	14	1	3	#46-13-48
4	2	15	1	3	#46-13-48
5	2	15	1	2	#46-13-48
6	3	2	1	3	#48-13-48
7	4	1	3	7	#13-48-48
8	5	1	3	5	#13-48-86
9	4	1	2	6	#13-48-48
10	5	1	2	4	#13-48-86
11	6	3	5	4	#48-86-86
12	7	3	5	9	#48-86-48
13	8	3	7	11	#48-48-48
14	9	3	7	17	#48-48-49
15	6	9	5	4	#48-86-86
16	10	7	3	5	#48-48-86
17	10	13	9	5	#48-48-86
18	11	19	9	5	#49-48-86
19	6	2	4	5	#48-86-86
20	6	8	4	5	#48-86-86
21	7	2	4	8	#48-86-48
22	10	6	2	4	#48-48-86
23	10	12	8	4	#48-48-86
24	11	18	8	4	#49-48-86
25	8	2	6	10	#48-48-48
26	9	2	6	16	#48-48-49
27	9	10	6	16	#48-48-49
28	9	6	10	20	#48-48-49
29	8	6	10	12	#48-48-48
30	9	12	10	20	#48-48-49
31	9	10	12	22	#48-48-49
32	8	10	12	8	#48-48-48
33	9	8	12	22	#48-48-49
34	9	12	8	18	#48-48-49
35	9	11	7	17	#48-48-49
36	9	7	11	21	#48-48-49
37	8	7	11	13	#48-48-48
38	9	13	11	21	#48-48-49
39	9	11	13	23	#48-48-49
40	8	11	13	9	#48-48-48
41	9	9	13	23	#48-48-49
42	9	13	9	19	#48-48-49

Dihedrals

1	1	2	1	3	5	#48-13-48-86
2	2	2	1	3	7	#48-13-48-48
3	3	15	1	3	5	#46-13-48-86
4	4	15	1	3	7	#46-13-48-48
5	3	14	1	3	5	#46-13-48-86
6	4	14	1	3	7	#46-13-48-48
7	1	3	1	2	4	#48-13-48-86
8	2	3	1	2	6	#48-13-48-48
9	3	15	1	2	4	#46-13-48-86
10	4	15	1	2	6	#46-13-48-48
11	3	14	1	2	4	#46-13-48-86
12	4	14	1	2	6	#46-13-48-48
13	5	1	3	5	4	#13-48-86-86
14	6	1	3	5	9	#13-48-86-48
15	7	7	3	5	4	#48-48-86-86
16	8	7	3	5	9	#48-48-86-48
17	9	1	3	7	11	#13-48-48-48
18	10	1	3	7	17	#13-48-48-49
19	11	11	7	3	5	#48-48-48-86
20	12	17	7	3	5	#49-48-48-86
21	5	1	2	4	5	#13-48-86-86
22	6	1	2	4	8	#13-48-86-48
23	7	6	2	4	5	#48-48-86-86
24	8	6	2	4	8	#48-48-86-48
25	9	1	2	6	10	#13-48-48-48
26	10	1	2	6	16	#13-48-48-49
27	11	10	6	2	4	#48-48-48-86
28	12	16	6	2	4	#49-48-48-86
29	13	3	5	4	2	#48-86-86-48
30	13	3	5	4	8	#48-86-86-48
31	13	9	5	4	2	#48-86-86-48
32	13	9	5	4	8	#48-86-86-48
33	8	13	9	5	3	#48-48-86-48
34	14	19	9	5	3	#49-48-86-48
35	7	13	9	5	4	#48-48-86-86
36	15	19	9	5	4	#49-48-86-86
37	8	12	8	4	2	#48-48-86-48
38	14	18	8	4	2	#49-48-86-48
39	7	12	8	4	5	#48-48-86-86
40	15	18	8	4	5	#49-48-86-86
41	16	3	7	11	13	#48-48-48-48
42	17	3	7	11	21	#48-48-48-49
43	17	13	11	7	17	#48-48-48-49
44	18	21	11	7	17	#49-48-48-49
45	16	2	6	10	12	#48-48-48-48
46	17	2	6	10	20	#48-48-48-49
47	17	12	10	6	16	#48-48-48-49
48	18	16	6	10	20	#49-48-48-49
49	11	11	13	9	5	#48-48-48-86
50	12	23	13	9	5	#49-48-48-86
51	17	11	13	9	19	#48-48-48-49
52	18	23	13	9	19	#49-48-48-49
53	11	10	12	8	4	#48-48-48-86
54	12	22	12	8	4	#49-48-48-86
55	17	10	12	8	18	#48-48-48-49
56	18	18	8	12	22	#49-48-48-49
57	16	7	11	13	9	#48-48-48-48
58	17	7	11	13	23	#48-48-48-49
59	17	9	13	11	21	#48-48-48-49
60	18	21	11	13	23	#48-48-48-48
61	16	6	10	12	8	#48-48-48-48
62	17	6	10	12	22	#48-48-48-49
63	17	8	12	10	20	#48-48-48-49
64	18	20	10	12	22	#49-48-48-49
65	19	1	4	2	6	#0-0-48-0 (Improper)
66	19	1	5	3	7	#0-0-48-0 (Improper)
67	19	2	10	6	16	#0-0-48-0 (Improper)
68	19	3	11	7	17	#0-0-48-0 (Improper)
69	19	4	12	8	18	#0-0-48-0 (Improper)
70	19	5	13	9	19	#0-0-48-0 (Improper)
71	19	6	12	10	20	#0-0-48-0 (Improper)
72	19	7	13	11	21	#0-0-48-0 (Improper)
73	19	8	10	12	22	#0-0-48-0 (Improper)
74	19	9	11	13	23	#0-0-48-0 (Improper)

Bond Coeffs				

1	14.7435	1.0900	#13-46
2	13.7462	1.5100	#13-48
3	20.3374	1.4000	#48-86
4	16.6949	1.4600	#86-86
5	20.3374	1.4000	#48-48
6	15.9143	1.0800	#48-49

Angle Coeffs				

1	1.4310	107.80	#46-13-46
2	1.5177	109.50	#46-13-48
3	1.7345	109.50	#48-13-48
4	3.0354	120.00	#13-48-48
5	3.0354	120.00	#13-48-86 approximated to 13-48-48
6	2.7319	120.00	#48-86-86
7	2.7319	120.00	#48-86-48
8	2.7319	120.00	#48-48-48
9	1.5177	120.00	#48-48-49
10	2.7319	120.00	#48-48-86
11	1.5177	120.00	#49-48-86

Dihedral Coeffs

1	0.0000	0.0000	0.0000	0.0000	#48-13-48-86 approximated to 0-13-48-48
2	0.0000	0.0000	0.0000	0.0000	#48-13-48-48 approximated to 0-13-48-48
3	0.0000	0.0000	0.0000	0.0000	#46-13-48-86 approximated to 46-13-48-48
4	0.0000	0.0000	0.0000	0.0000	#46-13-48-48
5	0.0000	0.3144	0.0000	0.0000	#13-48-86-86 approximated to 48-48-86-86
6	0.0000	0.3144	0.0000	0.0000	#13-48-86-48 approximated to 48-48-86-48
7	0.0000	0.3144	0.0000	0.0000	#48-48-86-86
8	0.0000	0.3144	0.0000	0.0000	#48-48-86-48
9	0.0000	0.3144	0.0000	0.0000	#13-48-48-48
10	0.0000	0.3144	0.0000	0.0000	#13-48-48-49
11	0.0000	0.3144	0.0000	0.0000	#48-48-48-86
12	0.0000	0.3144	0.0000	0.0000	#49-48-48-86
13	0.0000	0.0941	0.0000	0.0000	#48-86-86-48
14	0.0000	0.3144	0.0000	0.0000	#49-48-86-48
15	0.0000	0.3144	0.0000	0.0000	#49-48-86-86
16	0.0000	0.3144	0.0000	0.0000	#48-48-48-48
17	0.0000	0.3144	0.0000	0.0000	#48-48-48-49
18	0.0000	0.3144	0.0000	0.0000	#49-48-48-49
19	0.0000	0.2168	0.0000	0.0000	#0-0-48-0 (Improper)

