LAMMPS Cyfluthrin data file	#created by Amélie Lemay, June 2021; checked by Ian Bourg	

47 atoms		
49 bonds		
84 angles
139 dihedrals	#124 proper, 15 improper

21 atom types	
19 bond types		
29 angle types
35 dihedral types	#32 proper, 3 improper		

-30.0 30.0 xlo xhi		
-30.0 30.0 ylo yhi		
-30.0 30.0 zlo zhi		

Masses		

1	35.453
2	12.011
3	12.011
4	12.011
5	12.011
6	12.011
7	12.011
8	15.999
9	15.999
10	12.011
11	12.011
12	12.011
13	15.999
14	1.008
15	1.008
16	1.008
17	12.001
18	14.007
19	1.008
20	12.011
21	18.998				

Atoms						

1	1	1	-0.06	-7.944779	1.750193	2.046489	#341(21)	"Chloroalkene Cl2-C="
2	1	1	-0.06	-9.534784	3.545274	0.322682	#341(21)	"Chloroalkene Cl2-C="
3	1	2	0.12	-7.993826	2.896444	0.757797	#342(47)	"Chloroalkene Cl2-C="
4	1	3	-0.115	-6.887791	3.286443	0.105413	#87(47)	"Alkene RH-C="
5	1	4	-0.06	-5.502229	2.863982	0.359257	#653(91)	"Cyclopropane -CHR-"
6	1	4	-0.06	-4.528859	2.820477	-0.808556	#653(91)	"Cyclopropane -CHR-"
7	1	5	0	-4.960552	1.531655	-0.127511	#654(91)	"Cyclopropane -CR2-"
8	1	6	-0.18	-5.832526	0.60186	-0.943465	#80(13)	"Alkane CH3-"
9	1	6	-0.18	-4.038906	0.791524	0.810938	#80(13)	"Alkane CH3-"
10	1	7	0.51	-3.249092	3.546207	-0.64122	#406(3)	"Ester -COOR"
11	1	8	-0.43	-3.194307	4.756301	-0.798222	#407(4)	"Ester C=O"
12	1	9	-0.33	-2.194973	2.748491	-0.335069	#408(20)	"Ester CO-O-R"
13	1	10	0.435	-0.987355	3.487555	-0.053303	#698(13), charge adjusted	"Alkyl Nitrile R2CH-CN"
14	1	11	-0.115	0.233671	2.568257	-0.121892	#90(48)	"Aromatic C"
15	1	11	-0.115	1.516455	3.115563	0.092428	#90(48)	"Aromatic C"
16	1	11	-0.115	0.14758	1.20585	-0.433979	#90(48)	"Aromatic C"
17	1	11	-0.115	1.308951	0.436544	-0.553976	#90(48)	"Aromatic C"
18	1	20	0.22	2.569168	1.009096	-0.362239	#659(48)	"Fluorobenzene CF"
19	1	12	0.085	2.690059	2.34873	-0.008337	#141(48)	"Anisole C-OCH3"
20	1	13	-0.17	3.817443	3.088559	0.24968	#119(20)	"Diphenyl Ether"
21	1	12	0.085	5.087422	2.592887	0.131843	#141(48)	"Anisole C-OCH3"
22	1	11	-0.115	5.562495	1.489093	0.836733	#90(48)	"Aromatic C"
23	1	11	-0.115	6.911538	1.133884	0.745842	#90(48)	"Aromatic C"
24	1	11	-0.115	5.979609	3.385651	-0.596498	#90(48)	"Aromatic C"
25	1	11	-0.115	7.33084	3.047012	-0.666207	#90(48)	"Aromatic C"
26	1	11	-0.115	7.794622	1.912876	-0.003295	#90(48)	"Aromatic C"
27	1	14	0.115	-7.008871	4.031253	-0.680157	#89(46)	"Alkene H-C="
28	1	15	0.06	-5.11383	3.243588	1.303672	#85(46)	"Alkane H-C"
29	1	15	0.06	-4.941111	2.990309	-1.800641	#85(46)	"Alkane H-C"
30	1	15	0.06	-6.490628	1.139522	-1.634264	#85(46)	"Alkane H-C"
31	1	15	0.06	-6.460063	-0.01039	-0.287634	#85(46)	"Alkane H-C"
32	1	15	0.06	-5.207801	-0.069338	-1.542248	#85(46)	"Alkane H-C"
33	1	15	0.06	-4.611732	0.090424	1.42773	#85(46)	"Alkane H-C"
34	1	15	0.06	-3.505713	1.460891	1.493231	#85(46)	"Alkane H-C"
35	1	15	0.06	-3.300524	0.216576	0.242637	#85(46)	"Alkane H-C"
36	1	16	0.03	-0.838383	4.233393	-0.846682	#700(46), charge adjusted	"Alkyl Nitrile H-C-CN"
37	1	17	0.46	-1.08685	4.153094	1.270536	#695(19)	"Alkyl Nitrile -CN"
38	1	18	-0.56	-1.162987	4.677355	2.304629	#694(18)	"Alkyl Nitrile -CN"
39	1	19	0.115	-0.814476	0.72573	-0.601969	#91(49)	"Aromatic H-C"
40	1	19	0.115	1.242838	-0.618181	-0.80884	#91(49)	"Aromatic H-C"
41	1	19	0.115	1.621364	4.17381	0.337944	#91(49)	"Aromatic H-C"
42	1	21	-0.22	3.631513	0.214995	-0.543206	#660(1)	"Fluorobenzene CF"
43	1	19	0.115	4.897197	0.89898	1.459301	#91(49)	"Aromatic H-C"
44	1	19	0.115	7.277495	0.256738	1.273154	#91(49)	"Aromatic H-C"
45	1	19	0.115	8.846821	1.64524	-0.056444	#91(49)	"Aromatic H-C"
46	1	19	0.115	8.020382	3.674615	-1.224412	#91(49)	"Aromatic H-C"
47	1	19	0.115	5.623594	4.28529	-1.091668	#91(49)	"Aromatic H-C"

Bonds						

1	1	1	3	#21-47
2	1	2	3	#21-47
3	17	4	5	#47-91
4	3	7	8	#13-91
5	3	7	9	#13-91
6	18	6	7	#91-91
7	4	3	4	#47-47
8	18	5	7	#91-91
9	18	5	6	#91-91
10	5	6	10	#3-91 (does not exist, using OPLS bond type 3-13 instead)
11	6	10	12	#3-20
12	7	12	13	#13-20
13	8	13	14	#13-48
14	9	14	15	#48-48
15	9	16	17	#48-48
16	9	18	19	#48-48
17	10	19	20	#20-48
18	10	20	21	#20-48
19	9	21	24	#48-48
20	9	22	23	#48-48
21	9	25	26	#48-48
22	11	10	11	#3-4
23	9	14	16	#48-48
24	9	15	19	#48-48
25	9	17	18	#48-48
26	9	21	22	#48-48
27	9	24	25	#48-48
28	9	23	26	#48-48
29	12	4	27	#46-47
30	2	5	28	#46-91
31	2	6	29	#46-91
32	13	8	30	#13-46
33	13	8	31	#13-46
34	13	8	32	#13-46
35	13	9	33	#13-46
36	13	9	34	#13-46
37	13	9	35	#13-46
38	13	13	36	#13-46
39	14	13	37	#13-19
40	15	37	38	#18-19
41	16	16	39	#48-49
42	16	17	40	#48-49
43	16	15	41	#48-49
44	19	18	42	#1-48
45	16	22	43	#48-49
46	16	23	44	#48-49
47	16	26	45	#48-49
48	16	25	46	#48-49
49	16	24	47	#48-49

Angles				

1	1	6	10	11	#4-3-91 (does not exist, using #4-3-13)
2	2	6	10	12	#20-3-91 (does not exist, using #13-3-20)
3	3	11	10	12	#4-3-20
4	4	5	7	8	#13-91-91
5	4	5	7	9	#13-91-91
6	4	6	7	8	#13-91-91
7	4	6	7	9	#13-91-91
8	5	5	7	6	#91-91-91
9	5	5	6	7	#91-91-91
10	5	6	5	7	#91-91-91
11	4	8	7	9	#13-91-13 (does not exist, using 13-91-91)
12	8	7	6	10	#3-91-91 (does not exist, using 47-91-91)
13	8	5	6	10	#3-91-91 (does not exist, using 47-91-91)
14	6	30	8	31	#46-13-46
15	6	30	8	32	#46-13-46
16	6	31	8	32	#46-13-46
17	6	33	9	34	#46-13-46
18	6	33	9	35	#46-13-46
19	6	34	9	35	#46-13-46
20	7	36	13	37	#19-13-46
21	29	10	6	29	#3-91-46 (does not exist, using #13-91-46)
22	9	12	13	36	#20-13-46
23	10	5	6	29	#46-91-91
24	10	6	5	28	#46-91-91
25	11	7	8	30	#46-13-91
26	11	7	8	31	#46-13-91
27	11	7	8	32	#46-13-91
28	11	7	9	33	#46-13-91
29	11	7	9	34	#46-13-91
30	11	7	9	35	#46-13-91
31	10	7	6	29	#46-91-91
32	10	7	5	28	#46-91-91
33	12	4	5	28	#46-91-47
34	8	4	5	6	#47-91-91
35	8	4	5	7	#47-91-91
36	13	14	13	36	#46-13-48
37	14	12	13	14	#20-13-48
38	15	13	37	38	#13-19-18
39	16	10	12	13	#3-20-13
40	17	19	20	21	#48-20-48
41	18	5	4	27	#46-47-91
42	19	3	4	27	#46-47-47
43	20	3	4	5	#47-47-91
44	21	1	3	4	#21-47-47
45	21	2	3	4	#21-47-47
46	22	14	15	19	#48-48-48
47	22	17	18	19	#48-48-48
48	22	21	22	23	#48-48-48
49	22	21	24	25	#48-48-48
50	22	14	16	17	#48-48-48
51	22	15	14	16	#48-48-48
52	22	16	17	18	#48-48-48
53	22	22	23	26	#48-48-48
54	22	23	26	25	#48-48-48
55	22	24	25	26	#48-48-48
56	22	15	19	18	#48-48-48
57	22	22	21	24	#48-48-48
58	23	13	14	15	#13-48-48
59	23	13	14	16	#13-48-48
60	24	18	19	20	#20-48-48
61	24	15	19	20	#20-48-48
62	24	20	21	24	#20-48-48
63	24	20	21	22	#20-48-48
64	25	14	15	41	#48-48-49
65	25	14	16	39	#48-48-49
66	25	16	17	40	#48-48-49
67	25	17	16	39	#48-48-49
68	28	17	18	42	#1-48-48
69	25	18	17	40	#48-48-49
70	25	22	23	44	#48-48-49
71	25	23	22	43	#48-48-49
72	25	23	26	45	#48-48-49
73	25	24	25	46	#48-48-49
74	25	25	26	45	#48-48-49
75	25	25	24	47	#48-48-49
76	25	26	25	46	#48-48-49
77	25	26	23	44	#48-48-49
78	28	19	18	42	#1-48-48
79	25	19	15	41	#48-48-49
80	25	21	24	47	#48-48-49
81	25	21	22	43	#48-48-49
82	26	1	3	2	#21-47-21 (does not exist, using 21-47-47)
83	27	12	13	37	#20-13-19 (does not exist, using 13-13-19)
84	27	14	13	37	#48-13-19 (does not exist, using 13-13-19)

Dihedrals

1	1	7	6	10	11	#4-3-91-91 (does not exist, using 4-3-13-13)
2	1	5	6	10	11	#4-3-91-91 (does not exist, using 4-3-13-13)
3	2	11	10	6	29	#4-3-91-46 (does not exist, using 4-3-13-46)
4	3	7	6	10	12	#20-3-91-91 (does not exist, using 20-3-13-13)
5	3	5	6	10	12	#20-3-91-91 (does not exist, using 20-3-13-13)
6	35	12	10	6	29	#20-3-91-46 (does not exist, using 20-3-13-46)
7	5	11	10	12	13	#4-3-20-13
8	4	6	10	12	13	#91-3-20-13 (does not exist, using 13-3-20-13)
9	6	4	5	6	10	#0-91-91-0
10	6	8	7	6	10	#0-91-91-0
11	6	9	7	6	10	#0-91-91-0
12	6	5	7	6	10	#0-91-91-0
13	6	7	5	6	10	#0-91-91-0
14	6	10	6	5	28	#0-91-91-0
15	6	5	6	7	8	#0-91-91-0
16	6	5	6	7	9	#0-91-91-0
17	6	6	5	7	8	#0-91-91-0
18	6	6	5	7	9	#0-91-91-0
19	7	5	7	8	30	#46-13-91-91
20	7	5	7	8	31	#46-13-91-91
21	7	5	7	8	32	#46-13-91-91
22	7	5	7	9	33	#46-13-91-91
23	7	5	7	9	34	#46-13-91-91
24	7	5	7	9	35	#46-13-91-91
25	7	6	7	8	30	#46-13-91-91
26	7	6	7	8	31	#46-13-91-91
27	7	6	7	8	32	#46-13-91-91
28	7	6	7	9	33	#46-13-91-91
29	7	6	7	9	34	#46-13-91-91
30	7	6	7	9	35	#46-13-91-91
31	8	5	7	6	29	#46-91-91-91
32	8	6	7	5	28	#46-91-91-91
33	8	7	6	5	28	#46-91-91-91
34	8	7	5	6	29	#46-91-91-91
35	9	8	7	9	33	#46-13-91-13 (does not exist, using 13-13-13-46)
36	9	8	7	9	34	#46-13-91-13 (does not exist, using 13-13-13-46)
37	9	8	7	9	35	#46-13-91-13 (does not exist, using 13-13-13-46)
38	9	9	7	8	30	#46-13-91-13 (does not exist, using 13-13-13-46)
39	9	9	7	8	31	#46-13-91-13 (does not exist, using 13-13-13-46)
40	9	9	7	8	32	#46-13-91-13 (does not exist, using 13-13-13-46)
41	10	8	7	6	29	#13-91-91-46
42	10	8	7	5	28	#13-91-91-46
43	10	9	7	6	29	#13-91-91-46
44	10	9	7	5	28	#13-91-91-46
45	11	28	5	6	29	#46-91-91-46
46	6	4	5	6	29	#0-91-91-0
47	14	12	13	37	38	#0-13-19-18
48	14	14	13	37	38	#0-13-19-18
49	14	36	13	37	38	#0-13-19-18
50	15	10	12	13	36	#46-13-20-3
51	34	6	5	4	27	#46-47-91-91 (does not exist, using 0-13-47-46)
52	34	7	5	4	27	#46-47-91-91 (does not exist, using 0-13-47-46)
53	13	3	4	5	6	#47-47-91-91 (does not exist, using 13-13-47-47)
54	13	3	4	5	7	#47-47-91-91 (does not exist, using 13-13-47-47)
55	16	27	4	5	28	#46-47-91-46 (does not exist, using 46-13-47-46)
56	12	3	4	5	28	#47-47-91-46 (does not exist, using 46-13-47-46)
57	19	12	13	14	15	#0-13-48-48
58	19	12	13	14	16	#0-13-48-48
59	19	15	14	13	37	#0-13-48-48
60	19	16	14	13	37	#0-13-48-48
61	20	15	14	13	36	#46-13-48-48
62	20	16	14	13	36	#46-13-48-48
63	21	1	3	4	5	#0-47-47-0
64	21	2	3	4	5	#0-47-47-0
65	22	1	3	4	27	#21-47-47-46
66	22	2	3	4	27	#21-47-47-46
67	23	17	18	19	20	#0-48-48-48
68	23	14	15	19	20	#0-48-48-48
69	23	20	21	24	25	#0-48-48-48
70	23	20	21	22	23	#0-48-48-48
71	23	20	19	18	42	#0-48-48-0
72	24	20	19	15	41	#0-48-48-49
73	24	20	21	24	47	#0-48-48-49
74	24	20	21	22	43	#0-48-48-49
75	25	13	14	15	19	#13-48-48-48
76	25	13	14	16	17	#13-48-48-48
77	26	13	14	15	41	#13-48-48-49
78	26	13	14	16	39	#13-48-48-49
79	27	14	15	19	18	#48-48-48-48
80	27	15	19	18	17	#48-48-48-48
81	27	23	22	21	24	#48-48-48-48
82	27	22	21	24	25	#48-48-48-48
83	27	14	16	17	18	#48-48-48-48
84	27	15	14	16	17	#48-48-48-48
85	27	22	23	26	25	#48-48-48-48
86	27	23	26	25	24	#48-48-48-48
87	27	16	17	18	19	#48-48-48-48
88	27	16	14	15	19	#48-48-48-48
89	27	21	24	25	26	#48-48-48-48
90	27	21	22	23	26	#48-48-48-48
91	28	14	16	17	40	#48-48-48-49
92	28	15	14	16	39	#48-48-48-49
93	23	16	17	18	42	#0-48-48-48
94	28	16	14	15	41	#48-48-48-49
95	28	18	17	16	39	#48-48-48-49
96	28	22	23	26	45	#48-48-48-49
97	28	23	26	25	46	#48-48-48-49
98	28	24	25	26	45	#48-48-48-49
99	28	25	26	23	44	#48-48-48-49
100	28	26	25	24	47	#48-48-48-49
101	28	26	23	22	43	#48-48-48-49
102	23	15	19	18	42	#0-48-48-48
103	28	18	19	15	41	#48-48-48-49
104	28	22	21	24	47	#48-48-48-49
105	28	24	21	22	43	#48-48-48-49
106	28	19	18	17	40	#48-48-48-49
107	28	21	24	25	46	#48-48-48-49
108	28	21	22	23	44	#48-48-48-49
109	29	39	16	17	40	#49-48-48-49
110	33	40	17	18	42	#1-48-48-49
111	29	43	22	23	44	#49-48-48-49
112	29	44	23	26	45	#49-48-48-49
113	29	45	26	25	46	#49-48-48-49
114	29	46	25	24	47	#49-48-48-49
115	6	4	5	7	6	#0-91-91-0
116	6	4	5	6	7	#0-91-91-0
117	6	4	5	7	8	#0-91-91-0
118	6	4	5	7	9	#0-91-91-0
119	17	10	12	13	14	#48-13-20-3 (does not exist, using #13-13-20-3)
120	17	10	12	13	37	#19-13-20-3 (does not exist, using #13-13-20-3)
121	18	18	19	20	21	#48-20-48-48 (does not exist, using #13-20-48-48)
122	18	15	19	20	21	#48-20-48-48 (does not exist, using #13-20-48-48)
123	18	19	20	21	24	#48-20-48-48 (does not exist, using #13-20-48-48)
124	18	19	20	21	22	#48-20-48-48 (does not exist, using #13-20-48-48)
125	30	6	12	10	11	#0-0-3-4 (improper)
126	31	1	2	3	4	#0-0-47-0 (improper)
127	31	3	5	4	27	#0-0-47-0 (improper)
128	32	13	15	14	16	#0-0-48-0 (improper)
129	32	14	19	15	41	#0-0-48-0 (improper)
130	32	17	19	18	42	#0-0-48-0 (improper)
131	32	23	21	22	43	 #0-0-48-0 (improper)
132	32	25	21	24	47	#0-0-48-0 (improper)
133	32	14	17	16	39	#0-0-48-0 (improper)
134	32	16	18	17	40	#0-0-48-0 (improper)
135	32	22	26	23	44	#0-0-48-0 (improper)
136	32	23	25	26	45	#0-0-48-0 (improper)
137	32	24	26	25	46	#0-0-48-0 (improper)
138	32	15	18	19	20	#0-0-48-0 (improper)
139	32	20	24	21	22	#0-0-48-0 (improper)

Bond Coeffs				

1	13.0090	1.7250	#21-47
2	14.7435	1.0880	#46-91
3	12.1417	1.5100	#13-91
4	23.8065	1.3400	#47-47
5	13.7462	1.5220	#3-91 (does not exist, using OPLS bond type 3-13 instead)
6	9.2798	1.3270	#3-20
7	13.8763	1.4100	#13-20
8	13.7462	1.5100	#13-48
9	20.3374	1.4000	#48-48
10	19.5135	1.3640	#20-48
11	24.7171	1.2290	#3-4
12	14.7435	1.0800	#46-47
13	14.7435	1.0900	#13-46
14	16.9117	1.4700	#13-19
15	28.1862	1.1570	#18-19
16	15.9143	1.0800	#48-49
17	13.7462	1.5100	#47-91
18	11.2745	1.5200	#91-91
19	18.2126	1.3540	#1-48		

Angle Coeffs				

1	3.4691	120.40	#4-3-91 (does not exist, using #4-3-13 instead)
2	3.5124	111.40	#20-3-91 (does not exist, using #13-3-20 instead)
3	3.5992	123.40	#4-3-20
4	1.6261	117.20	#13-91-91 (also using this for 13-91-13, which does not exist)
5	1.3009	79.20	#91-91-91
6	1.4310	107.80	#46-13-46
7	1.5177	108.50	#19-13-46
8	2.7319	114.00	#3-91-91 (does not exist, using 47-91-91)
9	1.5177	109.50	#20-13-46
10	1.6261	117.20	#46-91-91
11	1.6261	110.70	#46-13-91
12	1.5177	109.50	#46-91-47
13	1.5177	109.50	#46-13-48
14	2.1682	109.50	#20-13-48
15	6.5045	180.00	#13-19-18
16	3.5992	116.90	#3-20-13
17	3.2522	111.00	#48-20-48
18	1.5177	135.00	#46-47-91
19	1.5177	120.00	#46-47-47
20	3.0354	124.00	#47-47-91
21	3.2522	121.50	#21-47-47
22	2.7319	120.00	#48-48-48
23	3.0354	120.00	#13-48-48
24	3.0354	120.00	#20-48-48
25	1.5177	120.00	#48-48-49
26	3.2522	121.50	#21-47-21 (does not exist, using 21-47-47)
27	2.5303	112.70	#20-13-19 or 48-13-19 (do not exist, using 13-13-19)
28	3.4691	120.00	#1-48-48
29	1.5177	114.30	#3-91-46 (does not exist, using #13-91-46)

Dihedral Coeffs

1	0.0000	0.0000	0.0000	0.0000	#4-3-91-91 (does not exist, using 4-3-13-13)
2	0.0000	0.0000	0.0000	0.0000	#4-3-91-46 (does not exist, using 4-3-13-46)
3	0.0000	0.0000	-0.0240	0.0000	#20-3-91-91 (does not exist, using 20-3-13-13)
4	0.2025	0.2222	0.0000	0.0000	#91-3-20-13 (does not exist, using 13-3-20-13)
5	0.0000	0.2222	0.0000	0.0000	#4-3-20-13
6	0.0000	0.0000	0.0000	0.0000	#0-91-91-0
7	0.0000	0.0000	0.0130	0.0000	#46-13-91-91
8	0.0000	0.0000	0.0000	0.0000	#46-91-91-91
9	0.0000	0.0000	0.0130	0.0000	#46-13-91-13 (does not exist, using 13-13-13-46)
10	0.0000	0.0000	0.0000	0.0000	#13-91-91-46
11	0.0000	0.0000	0.0000	0.0000	#46-91-91-46
12	0.0000	0.0000	-0.0161	0.0000	#47-47-91-46 (does not exist, using 46-13-47-47)
13	0.0150	0.0176	-0.0392	0.0000	#47-47-91-91 (does not exist, using 13-13-47-47)
14	0.0000	0.0000	0.0000	0.0000	#0-13-19-18
15	0.0000	0.0000	0.0086	0.0000	#46-13-20-3
16	0.0000	0.0000	0.0138	0.0000	#46-47-91-46 (does not exist, using 46-13-47-46)
17	-0.0529	-0.0055	0.0183	0.0000	#48-13-20-3 or 19-13-20-3 (do not exist, using 13-13-20-3)
18	0.0000	0.1301	0.0000	0.0000	#48-20-48-48 (does not exist, using 13-20-48-48)
19	0.0000	0.0000	0.0000	0.0000	#0-13-48-48
20	0.0000	0.0000	0.0000	0.0000	#46-13-48-48
21	0.0000	0.6071	0.0000	0.0000	#0-47-47-0
22	0.0000	0.6071	0.0000	0.0000	#21-47-47-46
23	0.0000	0.3144	0.0000	0.0000	#0-48-48-48
24	0.0000	0.3144	0.0000	0.0000	#0-48-48-49
25	0.0000	0.3144	0.0000	0.0000	#13-48-48-48
26	0.0000	0.3144	0.0000	0.0000	#13-48-48-49
27	0.0000	0.3144	0.0000	0.0000	#48-48-48-48
28	0.0000	0.3144	0.0000	0.0000	#48-48-48-49
29	0.0000	0.3144	0.0000	0.0000	#49-48-48-49
30	0.0000	0.9106	0.0000	0.0000	#0-0-3-4 (improper)
31	0.0000	1.3009	0.0000	0.0000	#0-0-47-0 (improper)
32	0.0000	0.2168	0.0000	0.0000	#0-0-48-0 (improper)
33	0.0000	0.3144	0.0000	0.0000	#1-48-48-49
34	0.0000	0.0000	0.0203	0.0000	#0-13-47-46
35	0.0000	0.0000	0.0057	0.0000	#20-3-91-46 (does not exist, using 20-3-13-46)
