LAMMPS TNT data file #created by Raneem Mohamed, summer 2020, checked by Jennie Willemsen and Ian Bourg		

21 atoms		
21 bonds		
33 angles
48 dihedrals		

7 atom types	
6 bond types		
8 angle types
9 dihedral types #(8 regular, 1 improper)	

-10.0  10.0 xlo xhi		
-10.0  10.0 ylo yhi		
-10.0  10.0 zlo zhi			

Masses		

1	1.008
2	12.011
3	12.011
4	12.011
5	1.008
6	14.007
7	15.999				

Atoms						

1	1	1	0.06	3.1226	0.2418	-0.9891	#85(46)
2	1	1	0.06	3.0863	0.6934	0.7662	#85(46)
3	1	1	0.06	3.3154	-0.8111	0.4109	#85(46)
4	1	2	-0.065	2.7239	-0.0016	0.0011	#93(13)
5	1	3	-0.115	1.2253	-0.0006	-0.0009	#90(48)
6	1	4	0.09	0.5284	1.2078	-0.0008	#709(48)
7	1	3	-0.115	-0.8666	1.2084	-0.0006	#90(48)
8	1	4	0.09	-1.5646	0.0008	-0.0004	#709(48)
9	1	3	-0.115	-0.8678	-1.2074	-0.0006	#90(48)
10	1	4	0.09	0.5271	-1.2082	-0.0008	#709(48)
11	1	5	0.115	-1.4159	-2.1468	-0.0003	#91(49)
12	1	5	0.115	-1.4137	2.1483	-0.0003	#91(49)
13	1	6	0.65	1.2142	-2.454	0.0002	#708(102)
14	1	6	0.65	-2.9846	0.0015	0.0001	#708(102)
15	1	6	0.65	1.217	2.4527	0	#708(102)
16	1	7	-0.37	-3.5922	1.0993	0.0006	#702(103)
17	1	7	-0.37	-3.5931	-1.0959	0.0004	#702(103)
18	1	7	-0.37	2.4705	2.4513	0.0003	#702(103)
19	1	7	-0.37	0.5495	3.5137	0.0008	#702(103)
20	1	7	-0.37	0.5454	-3.514	0.0012	#702(103)
21	1	7	-0.37	2.4677	-2.4539	-0.0005	#702(103)

Bonds						

1	1	1	4	#C-H	#46-13
2	1	2	4	#C-H	#46-13
3	1	3	4	#C-H	#46-13
4	2	4	5	#C-C	#13-48
5	3	5	6	#C-C	#48-48
6	3	6	7	#C-C	#48-48
7	3	7	8	#C-C	#48-48
8	3	8	9	#C-C	#48-48
9	3	9	10	#C-C	#48-48
10	3	10	5	#C-C	#48-48
11	4	6	15	#C-N	#48-102
12	4	8	14	#C-N	#48-102
13	5	14	16	#N-O	#102-103
14	5	14	17	#N=O	#102-103
15	5	15	18	#N=O	#102-103
16	5	15	19	#N-O	#102-103
17	6	7	12	#H-C	#48-49
18	6	9	11	#H-C	#48-49
19	4	10	13	#C-N	#48-102
20	5	13	20	#N-O	#102-103 (7/13/22: corrected bond type IB)
21	5	21	13	#N=O	#102-103 (7/13/22: corrected bond type IB)

Angles				

1	1	1	4	2	#46-13-46
2	1	1	4	3	#46-13-46
3	2	1	4	5	#46-13-48
4	1	2	4	3	#46-13-46
5	2	2	4	5	#46-13-48
6	2	3	4	5	#46-13-48
7	3	4	5	6	#13-48-48
8	3	4	5	10	#13-48-48
9	4	5	6	7	#48-48-48
10	4	6	7	8	#48-48-48
11	4	7	8	9	#48-48-48
12	4	8	9	10	#48-48-48
13	4	9	10	5	#48-48-48
14	4	10	5	6	#48-48-48
15	5	15	6	5	#102-48-48
16	5	15	6	7	#102-48-48
17	6	6	15	18	#48-102-103
18	6	6	15	19	#48-102-103
19	7	19	15	18	#103-102-103
20	8	12	7	6	#49-48-48
21	8	12	7	8	#49-48-48
22	5	14	8	7	#102-48-48
23	5	14	8	9	#102-48-48
24	6	8	14	16	#48-102-103
25	6	8	14	17	#48-102-103
26	7	17	14	16	#103-102-103
27	8	11	9	10	#49-48-48
28	8	11	9	8	#49-48-48
29	6	20	13	10	#48-102-103
30	6	21	13	10	#48-102-103
31	5	13	10	5	#102-48-48
32	5	13	10	9	#102-48-48
33	7	20	13	21	#103-102-103

Dihedrals

1	1	1	4	5	10	#46-13-48-48
2	1	1	4	5	6	#46-13-48-48
3	1	2	4	5	10	#46-13-48-48
4	1	2	4	5	6	#46-13-48-48
5	1	3	4	5	10	#46-13-48-48
6	1	3	4	5	6	#46-13-48-48
7	2	4	5	6	15	#13-48-48-102 (used 0-48-48-0)
8	3	4	5	6	7	#13-48-48-48
9	3	4	5	10	9	#13-48-48-48
10	2	4	5	10	13	#13-48-48-102
11	4	5	6	7	8	#48-48-48-48
12	4	6	7	8	9	#48-48-48-48
13	4	7	8	9	10	#48-48-48-48
14	4	8	9	10	5	#48-48-48-48
15	4	9	10	5	6	#48-48-48-48
16	4	10	5	6	7	#48-48-48-48
17	5	18	15	6	7	#103-102-48-48
18	5	18	15	6	5	#103-102-48-48
19	5	19	15	6	5	#103-102-48-48
20	5	19	15	6	7	#103-102-48-48
21	5	16	14	8	7	#103-102-48-48
22	5	16	14	8	9	#103-102-48-48
23	5	17	14	8	9	#103-102-48-48
24	5	17	14	8	7	#103-102-48-48
25	5	21	13	10	5	#103-102-48-48
26	5	21	13	10	9	#103-102-48-48
27	5	20	13	10	5	#103-102-48-48
28	5	20	13	10	9	#103-102-48-48
29	6	15	6	5	10	#102-48-48-48 (used 0-48-48-0)
30	6	15	6	7	8	#102-48-48-48 
31	7	15	6	7	12	#102-48-48-49 (used 0-48-48-0)
32	7	14	8	9	11	#102-48-48-49
33	6	14	8	9	10	#102-48-48-48
34	6	14	8	7	6	#102-48-48-48
35	7	14	8	7	12	#102-48-48-49
36	6	13	10	9	8	#102-48-48-48
37	7	13	10	9	11	#102-48-48-49
38	6	13	10	5	6	#102-48-48-48
39	8	11	9	10	5	#49-48-48-48
40	8	11	9	8	7	#49-48-48-48
41	8	12	7	8	9	#49-48-48-48
42	8	12	7	6	5	#49-48-48-48
43	9	4	6	5	10	#0-0-48-0 (improper)
44	9	5	7	6	15	#0-0-48-0 (improper)
45	9	6	8	7	12	#0-0-48-0 (improper)
46	9	7	9	8	14	#0-0-48-0 (improper)
47	9	8	10	9	11	#0-0-48-0 (improper)
48	9	5	9	10	13	#0-0-48-0 (improper)

Bond Coeffs				

1	14.7435	1.0900	#46-13 (7/13/22: corrected bond strength IB)
2	13.7462	1.5100	#13-48 (7/13/22: corrected bond strength IB)
3	20.3374	1.4000	#48-48 (7/13/22: corrected bond strength IB)
4	17.3453	1.4600	#48-102 (7/13/22: corrected bond strength IB)
5	23.8498	1.2250	#102-103 (7/13/22: corrected bond strength IB)
6	15.9143	1.0800	#48-49 (7/13/22: corrected bond strength IB)	

Angle Coeffs				

1	1.4310	107.80	#46-13-46
2	1.5177	109.50	#46-13-48
3	3.0354	120.00	#13-48-48
4	2.7319	120.00	#48-48-48
5	3.6859	120.00	#102-48-48
6	3.4691	117.50	#48-102-103
7	3.4691	125.00	#103-102-103
8	1.5177	120.00	#49-48-48

Dihedral Coeffs

1	0.0000	0.0000	0.0000	0.0000	#46-13-48-48
2	0.0000	0.3144	0.0000	0.0000	#13-48-48-102 (used 0-48-48-0)
3	0.0000	0.3144	0.0000	0.0000	#13-48-48-48
4	0.0000	0.3144	0.0000	0.0000	#48-48-48-48
5	0.0000	0.0499	0.0000	0.0000	#103-102-48-48
6	0.0000	0.3144	0.0000	0.0000	#102-48-48-48 (used 0-48-48-0)
7	0.0000	0.3144	0.0000	0.0000	#102-48-48-49 (used 0-48-48-0)
8	0.0000	0.3144	0.0000	0.0000	#49-48-48-48
9	0.0000	0.2168	0.0000	0.0000	#0-0-48-0 (improper)
