LAMMPS Dioxane data file #created by Philip Maruri, June 2020; checked by Ian

14 atoms
14 bonds
26 angles
30 dihedrals	

3 atom types
3 bond types
5 angle types
5 dihedral types		

-8.0  8.0 xlo xhi		
-8.0  8.0 ylo yhi		
-8.0  8.0 zlo zhi		

Masses		

1	15.999
2	12.011
3	1.008

Atoms						

1	1	1	-0.4000	-1.3826	-0.0004	0.2432	#122(20)
2	1	1	-0.4000	1.3826	0.0004	-0.2433	#122(20)
3	1	2	0.1400	-0.7239	1.1760	-0.2324	#124(13)
4	1	2	0.1400	-0.7232	-1.1764	-0.2324	#124(13)
5	1	2	0.1400	0.7231	1.1764	0.2324	#124(13)
6	1	2	0.1400	0.7239	-1.1760	0.2324	#124(13)
7	1	3	0.0300	-1.2543	2.0478	0.1616	#127(46)
8	1	3	0.0300	-0.7891	1.1982	-1.3263	#127(46)
9	1	3	0.0300	-0.7884	-1.1986	-1.3263	#127(46)
10	1	3	0.0300	-1.2531	-2.0486	0.1615	#127(46)
11	1	3	0.0300	1.2531	2.0486	-0.1615	#127(46)
12	1	3	0.0300	0.7883	1.1985	1.3264	#127(46)
13	1	3	0.0300	0.7892	-1.1981	1.3263	#127(46)
14	1	3	0.0300	1.2544	-2.0478	-0.1615	#127(46)

Bonds						

1	1	3	1	#13-20
2	1	4	1	#13-20
3	1	5	2	#13-20
4	1	6	2	#13-20
5	2	3	5	#13-13
6	3	3	7	#13-46
7	3	3	8	#13-46
8	2	4	6	#13-13
9	3	4	9	#13-46
10	3	4	10	#13-46
11	3	5	11	#13-46
12	3	5	12	#13-46
13	3	6	13	#13-46
14	3	6	14	#13-46

Angles				

1	1	3	1	4	#13-20-13
2	1	5	2	6	#13-20-13
3	2	1	3	5	#20-13-13
4	3	1	3	7	#20-13-46
5	3	1	3	8	#20-13-46
6	4	5	3	7	#13-13-46
7	4	5	3	8	#13-13-46
8	5	7	3	8	#46-13-46
9	2	1	4	6	#20-13-13
10	3	1	4	9	#20-13-46
11	3	1	4	10	#20-13-46
12	4	6	4	9	#13-13-46
13	4	6	4	10	#13-13-46
14	5	9	4	10	#46-13-46
15	2	2	5	3	#20-13-13
16	3	2	5	11	#20-13-46
17	3	2	5	12	#20-13-46
18	4	3	5	11	#13-13-46
19	4	3	5	12	#13-13-46
20	5	11	5	12	#46-13-46
21	2	2	6	4	#20-13-13
22	3	2	6	13	#20-13-46
23	3	2	6	14	#20-13-46
24	4	4	6	13	#13-13-46
25	4	4	6	14	#13-13-46
26	5	13	6	14	#46-13-46

Dihedrals

1	1	4	1	3	5	#13-20-13-13
2	2	7	3	1	4	#46-13-20-13
3	2	8	3	1	4	#46-13-20-13
4	1	3	1	4	6	#13-20-13-13
5	2	9	4	1	3	#46-13-20-13
6	2	10	4	1	3	#46-13-20-13
7	1	6	2	5	3	#13-20-13-13
8	2	11	5	2	6	#46-13-20-13
9	2	12	5	2	6	#46-13-20-13
10	1	5	2	6	4	#13-20-13-13
11	2	13	6	2	5	#46-13-20-13
12	2	14	6	2	5	#46-13-20-13
13	3	1	3	5	2	#20-13-13-20
14	4	1	3	5	11	#20-13-13-46
15	4	1	3	5	12	#20-13-13-46
16	4	2	5	3	7	#20-13-13-46
17	4	2	5	3	8	#20-13-13-46
18	5	7	3	5	11	#46-13-13-46
19	5	7	3	5	12	#46-13-13-46
20	5	8	3	5	11	#46-13-13-46
21	5	8	3	5	12	#46-13-13-46
22	3	1	4	6	2	#20-13-13-20
23	4	1	4	6	13	#20-13-13-46
24	4	1	4	6	14	#20-13-13-46
25	4	2	6	4	9	#20-13-13-46
26	4	2	6	4	10	#20-13-13-46
27	5	9	4	6	13	#46-13-13-46
28	5	9	4	6	14	#46-13-13-46
29	5	10	4	6	13	#46-13-13-46
30	5	10	4	6	14	#46-13-13-46

Bond Coeffs				

1	13.8763	1.4100	#13-20
2	11.6214	1.5290	#13-13
3	14.7435	1.0900	#13-46

Angle Coeffs				

1	2.6018	109.500	#13-20-13
2	2.1682	109.500	#20-13-13
3	1.5177	109.500	#20-13-46
4	1.6261	110.700	#13-13-46
5	1.4310	107.800	#46-13-46

Dihedral Coeffs

1	0.0282 	-0.0108 0.0291	0.0000  #13-20-13-13
2	0.0000	0.00000	0.0330	0.0000	#46-13-20-13 (non-existent -> value for 46-13-20-0 used)
3	-0.0238	0.00000	0.0000	0.0000	#20-13-13-20
4	0.0000	0.00000	0.0203	0.0000	#20-13-13-46
5	0.0000	0.00000	0.0130	0.0000	#46-13-13-46
