LAMMPS Lilial (butylphenyl methylpropional) data file #created by Amélie Lemay, July 2021, checked by Jennie	

35 atoms		
35 bonds		
63 angles
94 dihedrals	#87 proper, 7 improper		

10 atom types	
8 bond types		
13 angle types
19 dihedral types	#17 proper, 2 improper		

-20.0 20.0 xlo xhi		
-20.0 20.0 ylo yhi		
-20.0 20.0 zlo zhi		

Masses		

1	15.999
2	12.011
3	12.011
4	12.011
5	12.011
6	12.011
7	12.011
8	1.008
9	1.008
10	1.008				

Atoms						

1	1	1	-0.45	5.5682	0.0948	0.2161	#220(4)	"Aldehyde/Acyl Halide C=O"
2	1	2	0.115	-3.4184	-0.046	0.2112	#84(13), charge adjusted	"Alkane >C<"
3	1	3	-0.115	-1.9079	0.0455	-0.0619	#90(48)	"Aromatic C"
4	1	4	-0.18	-3.6834	-1.0854	1.3218	#80(13)	"Alkane CH3-"
5	1	4	-0.18	-4.1539	-0.479	-1.0755	#80(13)	"Alkane CH3-"
6	1	4	-0.18	-4.0521	1.2861	0.6724	#80(13)	"Alkane CH3-"
7	1	3	-0.115	0.7871	0.2095	-0.5491	#90(48)	"Aromatic C"
8	1	5	-0.005	2.2518	0.2988	-0.8148	#94(13)	"Ethyl Benzene -CH2-"
9	1	3	-0.115	-1.2512	-1.0855	-0.4779	#90(48)	"Aromatic C"
10	1	3	-0.115	-1.2851	1.2546	0.1227	#90(48)	"Aromatic C"
11	1	6	-0.06	3.1409	-0.0027	0.4119	#82(13)	"Alkane >CH-"
12	1	3	-0.115	0.119	-1.0021	-0.7255	#90(48)	"Aromatic C"
13	1	3	-0.115	0.085	1.3378	-0.125	#90(48)	"Aromatic C"
14	1	4	-0.18	3.3126	-1.5017	0.6505	#80(13)	"Alkane CH3-"
15	1	7	0.45	4.4874	0.6753	0.2231	#219(3)	"Aldehyde/Acyl Halide C=O"
16	1	8	0.06	-4.751	-1.1386	1.5656	#85(46)	"Alkane H-C"
17	1	8	0.06	-3.3734	-2.0953	1.0319	#85(46)	"Alkane H-C"
18	1	8	0.06	-3.1448	-0.8267	2.2412	#85(46)	"Alkane H-C"
19	1	8	0.06	-3.8537	-1.4769	-1.4132	#85(46)	"Alkane H-C"
20	1	8	0.06	-5.2386	-0.5099	-0.9183	#85(46)	"Alkane H-C"
21	1	8	0.06	-3.9566	0.2199	-1.897	#85(46)	"Alkane H-C"
22	1	8	0.06	-5.1276	1.1631	0.8519	#85(46)	"Alkane H-C"
23	1	8	0.06	-3.6177	1.6433	1.6136	#85(46)	"Alkane H-C"
24	1	8	0.06	-3.95	2.0731	-0.0842	#85(46)	"Alkane H-C"
25	1	8	0.06	2.4703	1.3066	-1.1952	#85(46)	"Alkane H-C"
26	1	8	0.06	2.5219	-0.3669	-1.6462	#85(46)	"Alkane H-C"
27	1	9	0.115	-1.7498	-2.0376	-0.6225	#91(49)	"Aromatic H-C"
28	1	9	0.115	-1.7794	2.1602	0.4502	#91(49)	"Aromatic H-C"
29	1	8	0.06	2.7054	0.448	1.3129	#85(46)	"Alkane H-C"
30	1	9	0.115	0.6528	-1.8881	-1.0591	#91(49)	"Aromatic H-C"
31	1	9	0.115	0.5951	2.2868	0.0182	#91(49)	"Aromatic H-C"
32	1	8	0.06	3.7325	-2.0006	-0.2298	#85(46)	"Alkane H-C"
33	1	8	0.06	2.3581	-1.9779	0.8925	#85(46)	"Alkane H-C"
34	1	8	0.06	3.9932	-1.6868	1.489	#85(46)	"Alkane H-C"
35	1	10	0	4.4479	1.7731	0.1098	#221(46)	"Aldehyde/Formamide H-C=O"

Bonds						

1	1	1	15	#3-4
2	2	2	3	#13-48
3	3	2	4	#13-13
4	3	2	5	#13-13
5	3	2	6	#13-13
6	4	3	9	#48-48
7	4	3	10	#48-48
8	5	4	16	#13-46
9	5	4	17	#13-46
10	5	4	18	#13-46
11	5	5	19	#13-46
12	5	5	20	#13-46
13	5	5	21	#13-46
14	5	6	22	#13-46
15	5	6	23	#13-46
16	5	6	24	#13-46
17	2	7	8	#13-48
18	4	7	12	#48-48
19	4	7	13	#48-48
20	3	8	11	#13-13
21	5	8	25	#13-46
22	5	8	26	#13-46
23	4	9	12	#48-48
24	8	9	27	#48-49
25	4	10	13	#48-48
26	8	10	28	#48-49
27	3	11	14	#13-13
28	6	11	15	#3-13
29	5	11	29	#13-46
30	8	12	30	#48-49
31	8	13	31	#48-49
32	5	14	32	#13-46
33	5	14	33	#13-46
34	5	14	34	#13-46
35	7	15	35	#3-46

Angles				

1	1	1	15	11	#4-3-13
2	2	11	15	35	#13-3-46
3	3	1	15	35	#4-3-46
4	4	4	2	5	#13-13-13
5	4	4	2	6	#13-13-13
6	4	5	2	6	#13-13-13
7	4	8	11	14	#13-13-13
8	5	8	11	15	#3-13-13
9	5	14	11	15	#3-13-13
10	6	16	4	17	#46-13-46
11	6	16	4	18	#46-13-46
12	6	17	4	18	#46-13-46
13	6	19	5	20	#46-13-46
14	6	19	5	21	#46-13-46
15	6	20	5	21	#46-13-46
16	6	22	6	23	#46-13-46
17	6	22	6	24	#46-13-46
18	6	23	6	24	#46-13-46
19	6	32	14	33	#46-13-46
20	6	32	14	34	#46-13-46
21	6	33	14	34	#46-13-46
22	6	25	8	26	#46-13-46
23	7	15	11	29	#3-13-46
24	8	2	4	16	#13-13-46
25	8	2	4	17	#13-13-46
26	8	2	4	18	#13-13-46
27	8	2	5	19	#13-13-46
28	8	2	5	20	#13-13-46
29	8	2	5	21	#13-13-46
30	8	2	6	22	#13-13-46
31	8	2	6	23	#13-13-46
32	8	2	6	24	#13-13-46
33	8	8	11	29	#13-13-46
34	8	11	8	25	#13-13-46
35	8	11	8	26	#13-13-46
36	8	11	14	32	#13-13-46
37	8	11	14	33	#13-13-46
38	8	11	14	34	#13-13-46
39	8	14	11	29	#13-13-46
40	9	7	8	25	#46-13-48
41	9	7	8	26	#46-13-48
42	10	3	2	4	#13-13-48
43	10	3	2	5	#13-13-48
44	10	3	2	6	#13-13-48
45	10	7	8	11	#13-13-48
46	11	3	9	12	#48-48-48
47	11	3	10	13	#48-48-48
48	11	7	12	9	#48-48-48
49	11	7	13	10	#48-48-48
50	11	9	3	10	#48-48-48
51	11	12	7	13	#48-48-48
52	12	2	3	9	#13-48-48
53	12	2	3	10	#13-48-48
54	12	8	7	12	#13-48-48
55	12	8	7	13	#13-48-48
56	13	3	9	27	#48-48-49
57	13	3	10	28	#48-48-49
58	13	7	12	30	#48-48-49
59	13	7	13	31	#48-48-49
60	13	9	12	30	#48-48-49
61	13	10	13	31	#48-48-49
62	13	12	9	27	#48-48-49
63	13	13	10	28	#48-48-49

Dihedrals

1	1	1	15	11	8	#4-3-13-13
2	1	1	15	11	14	#4-3-13-13
3	2	1	15	11	29	#4-3-13-46
4	3	8	11	15	35	#46-3-13-13
5	3	14	11	15	35	#46-3-13-13
6	4	29	11	15	35	#46-3-13-46
7	5	7	8	11	14	#0-13-13-13
8	6	15	11	8	25	#3-13-13-46
9	6	15	11	8	26	#3-13-13-46
10	6	15	11	14	32	#3-13-13-46
11	6	15	11	14	33	#3-13-13-46
12	6	15	11	14	34	#3-13-13-46
13	7	7	8	11	15	#3-13-13-48
14	8	4	2	5	19	#13-13-13-46
15	8	4	2	5	20	#13-13-13-46
16	8	4	2	5	21	#13-13-13-46
17	8	4	2	6	22	#13-13-13-46
18	8	4	2	6	23	#13-13-13-46
19	8	4	2	6	24	#13-13-13-46
20	8	5	2	4	16	#13-13-13-46
21	8	5	2	4	17	#13-13-13-46
22	8	5	2	4	18	#13-13-13-46
23	8	5	2	6	22	#13-13-13-46
24	8	5	2	6	23	#13-13-13-46
25	8	5	2	6	24	#13-13-13-46
26	8	6	2	4	16	#13-13-13-46
27	8	6	2	4	17	#13-13-13-46
28	8	6	2	4	18	#13-13-13-46
29	8	6	2	5	19	#13-13-13-46
30	8	6	2	5	20	#13-13-13-46
31	8	6	2	5	21	#13-13-13-46
32	8	8	11	14	32	#13-13-13-46
33	8	8	11	14	33	#13-13-13-46
34	8	8	11	14	34	#13-13-13-46
35	8	14	11	8	25	#13-13-13-46
36	8	14	11	8	26	#13-13-13-46
37	9	25	8	11	29	#46-13-13-46
38	9	26	8	11	29	#46-13-13-46
39	9	29	11	14	32	#46-13-13-46
40	9	29	11	14	33	#46-13-13-46
41	9	29	11	14	34	#46-13-13-46
42	10	3	2	4	16	#46-13-13-48
43	10	3	2	4	17	#46-13-13-48
44	10	3	2	4	18	#46-13-13-48
45	10	3	2	5	19	#46-13-13-48
46	10	3	2	5	20	#46-13-13-48
47	10	3	2	5	21	#46-13-13-48
48	10	3	2	6	22	#46-13-13-48
49	10	3	2	6	23	#46-13-13-48
50	10	3	2	6	24	#46-13-13-48
51	10	7	8	11	29	#46-13-13-48
52	11	4	2	3	9	#13-13-48-48
53	11	4	2	3	10	#13-13-48-48
54	11	5	2	3	9	#13-13-48-48
55	11	5	2	3	10	#13-13-48-48
56	11	6	2	3	9	#13-13-48-48
57	11	6	2	3	10	#13-13-48-48
58	11	11	8	7	12	#13-13-48-48
59	11	11	8	7	13	#13-13-48-48
60	12	12	7	8	25	#46-13-48-48
61	12	13	7	8	25	#46-13-48-48
62	12	12	7	8	26	#46-13-48-48
63	12	13	7	8	26	#46-13-48-48
64	13	2	3	9	12	#13-48-48-48
65	13	2	3	10	13	#13-48-48-48
66	13	8	7	12	9	#13-48-48-48
67	13	8	7	13	10	#13-48-48-48
68	14	2	3	9	27	#13-48-48-49
69	14	2	3	10	28	#13-48-48-49
70	14	8	7	12	30	#13-48-48-49
71	14	8	7	13	31	#13-48-48-49
72	15	3	9	12	7	#48-48-48-48
73	15	3	10	13	7	#48-48-48-48
74	15	9	3	10	13	#48-48-48-48
75	15	9	12	7	13	#48-48-48-48
76	15	10	3	9	12	#48-48-48-48
77	15	10	13	7	12	#48-48-48-48
78	16	3	9	12	30	#48-48-48-49
79	16	3	10	13	31	#48-48-48-49
80	16	7	12	9	27	#48-48-48-49
81	16	7	13	10	28	#48-48-48-49
82	16	9	3	10	28	#48-48-48-49
83	16	10	3	9	27	#48-48-48-49
84	16	12	7	13	31	#48-48-48-49
85	16	13	7	12	30	#48-48-48-49
86	17	27	9	12	30	#49-48-48-49
87	17	28	10	13	31	#49-48-48-49
88	18	11	35	15	1	#0-0-3-4 (improper)
89	19	2	9	3	10	#0-0-48-0 (improper)
90	19	3	12	9	27	#0-0-48-0 (improper)
91	19	3	13	10	28	#0-0-48-0 (improper)
92	19	7	9	12	30	#0-0-48-0 (improper)
93	19	7	10	13	31	#0-0-48-0 (improper)
94	19	8	12	7	13	#0-0-48-0 (improper)

Bond Coeffs				

1	24.71709764	1.229	#3-4
2	13.74617535	1.51	#13-48
3	11.62137222	1.529	#13-13
4	20.33740139	1.4	#48-48
5	14.74353193	1.09	#13-46
6	13.74617535	1.522	#3-13
7	14.74353193	1.09	#3-46
8	15.91434181	1.08	#48-49		

Angle Coeffs				

1	3.469066335	120.4	#4-3-13
2	1.517716522	115	#13-3-46
3	1.517716522	123	#4-3-46
4	2.530250258	112.7	#13-13-13
5	2.731889739	111.1	#3-13-13
6	1.430989863	107.8	#46-13-46
7	1.517716522	109.5	#3-13-46
8	1.626124845	110.7	#13-13-46
9	1.517716522	109.5	#46-13-48
10	2.731889739	114	#13-13-48
11	2.731889739	120	#48-48-48
12	3.035433044	120	#13-48-48
13	1.517716522	120	#48-48-49

Dihedral Coeffs

1	0	0	0	0	#4-3-13-13
2	0	0	0	0	#4-3-13-46
3	0	0	0	0	#46-3-13-13
4	0	0	0.01561079851	0	#46-3-13-46
5	0.07419465625	-0.0216816646	0.02874988726	0	#0-13-13-13
6	0	0	-0.004336332919	0	#3-13-13-46
7	-0.07358756964	-0.01977367811	0.02536754758	0	#3-13-13-48
8	0	0	0.01300899876	0	#13-13-13-46
9	0	0	0.01300899876	0	#46-13-13-46
10	0	0	0.02003385809	0	#46-13-13-48
11	0	0	0	0	#13-13-48-48
12	0	0	0	0	#46-13-48-48
13	0	0.3143841367	0	0	#13-48-48-48
14	0	0.3143841367	0	0	#13-48-48-49
15	0	0.3143841367	0	0	#48-48-48-48
16	0	0.3143841367	0	0	#48-48-48-49
17	0	0.3143841367	0	0	#49-48-48-49
18	0	0.216816646	0	0	#0-0-48-0 (improper)
19	0	0.9106299131	0	0	#0-0-3-4 (improper)

